<?xml version="1.0" encoding="UTF-8"?>

<!-- generated on mar 19 giu 2018 12:13:22 CEST by SUMO gui Version 0.29.0
<?xml version="1.0" encoding="UTF-8"?>

<configuration xmlns:xsi="http://www.w3.org/2001/XMLSchema-instance" xsi:noNamespaceSchemaLocation="http://sumo.dlr.de/xsd/sumo-gui.exeConfiguration.xsd">

    <input>
        <net-file value="pedcrossing.net.xml"/>
        <route-files value="pedcrossing.rou.xml"/>
        <additional-files value="pedcrossing.tll.xml,pedcrossing.lad.xml"/>
    </input>

    <report>
        <verbose value="true"/>
        <no-step-log value="true"/>
    </report>

    <traci_server>
        <remote-port value="51513"/>
    </traci_server>

    <random_number>
        <random value="false"/>
        <seed value="0"/>
    </random_number>

    <gui_only>
        <gui-settings-file value="viewsettings.xml"/>
    </gui_only>

</configuration>
-->

<detector xmlns:xsi="http://www.w3.org/2001/XMLSchema-instance" xsi:noNamespaceSchemaLocation="http://sumo.dlr.de/xsd/det_e2_file.xsd">
   <interval begin="0.00" end="1.00" id="SC_0" sampledSeconds="0.00" nVehEntered="0" meanSpeed="-1.00" meanTimeLoss="-1.00" meanOccupancy="0.00" maxOccupancy="0.00" meanMaxJamLengthInVehicles="0.00" meanMaxJamLengthInMeters="0.00" maxJamLengthInVehicles="0" maxJamLengthInMeters="0.00" jamLengthInVehiclesSum="0" jamLengthInMetersSum="0.00" meanHaltingDuration="0.00" maxHaltingDuration="0.00" haltingDurationSum="0.00" meanIntervalHaltingDuration="0.00" maxIntervalHaltingDuration="0.00" intervalHaltingDurationSum="0.00" startedHalts="0.00" meanVehicleNumber="0.00" maxVehicleNumber="0" />
   <interval begin="1.00" end="2.00" id="SC_0" sampledSeconds="1.00" nVehEntered="0" meanSpeed="1.83" meanTimeLoss="0.87" meanOccupancy="12.42" maxOccupancy="12.42" meanMaxJamLengthInVehicles="0.00" meanMaxJamLengthInMeters="0.00" maxJamLengthInVehicles="0" maxJamLengthInMeters="0.00" jamLengthInVehiclesSum="0" jamLengthInMetersSum="0.00" meanHaltingDuration="0.00" maxHaltingDuration="0.00" haltingDurationSum="0.00" meanIntervalHaltingDuration="0.00" maxIntervalHaltingDuration="0.00" intervalHaltingDurationSum="0.00" startedHalts="0.00" meanVehicleNumber="1.00" maxVehicleNumber="1" />
   <interval begin="2.00" end="3.00" id="SC_0" sampledSeconds="1.00" nVehEntered="0" meanSpeed="3.31" meanTimeLoss="0.76" meanOccupancy="12.42" maxOccupancy="12.42" meanMaxJamLengthInVehicles="0.00" meanMaxJamLengthInMeters="0.00" maxJamLengthInVehicles="0" maxJamLengthInMeters="0.00" jamLengthInVehiclesSum="0" jamLengthInMetersSum="0.00" meanHaltingDuration="0.00" maxHaltingDuration="0.00" haltingDurationSum="0.00" meanIntervalHaltingDuration="0.00" maxIntervalHaltingDuration="0.00" intervalHaltingDurationSum="0.00" startedHalts="0.00" meanVehicleNumber="1.00" maxVehicleNumber="1" />
   <interval begin="3.00" end="4.00" id="SC_0" sampledSeconds="1.00" nVehEntered="0" meanSpeed="5.10" meanTimeLoss="0.63" meanOccupancy="12.42" maxOccupancy="12.42" meanMaxJamLengthInVehicles="0.00" meanMaxJamLengthInMeters="0.00" maxJamLengthInVehicles="0" maxJamLengthInMeters="0.00" jamLengthInVehiclesSum="0" jamLengthInMetersSum="0.00" meanHaltingDuration="0.00" maxHaltingDuration="0.00" haltingDurationSum="0.00" meanIntervalHaltingDuration="0.00" maxIntervalHaltingDuration="0.00" intervalHaltingDurationSum="0.00" startedHalts="0.00" meanVehicleNumber="1.00" maxVehicleNumber="1" />
   <interval begin="4.00" end="5.00" id="SC_0" sampledSeconds="1.00" nVehEntered="0" meanSpeed="6.54" meanTimeLoss="0.53" meanOccupancy="12.42" maxOccupancy="12.42" meanMaxJamLengthInVehicles="0.00" meanMaxJamLengthInMeters="0.00" maxJamLengthInVehicles="0" maxJamLengthInMeters="0.00" jamLengthInVehiclesSum="0" jamLengthInMetersSum="0.00" meanHaltingDuration="0.00" maxHaltingDuration="0.00" haltingDurationSum="0.00" meanIntervalHaltingDuration="0.00" maxIntervalHaltingDuration="0.00" intervalHaltingDurationSum="0.00" startedHalts="0.00" meanVehicleNumber="1.00" maxVehicleNumber="1" />
   <interval begin="5.00" end="6.00" id="SC_0" sampledSeconds="1.00" nVehEntered="0" meanSpeed="8.11" meanTimeLoss="0.42" meanOccupancy="12.42" maxOccupancy="12.42" meanMaxJamLengthInVehicles="0.00" meanMaxJamLengthInMeters="0.00" maxJamLengthInVehicles="0" maxJamLengthInMeters="0.00" jamLengthInVehiclesSum="0" jamLengthInMetersSum="0.00" meanHaltingDuration="0.00" maxHaltingDuration="0.00" haltingDurationSum="0.00" meanIntervalHaltingDuration="0.00" maxIntervalHaltingDuration="0.00" intervalHaltingDurationSum="0.00" startedHalts="0.00" meanVehicleNumber="1.00" maxVehicleNumber="1" />
   <interval begin="6.00" end="7.00" id="SC_0" sampledSeconds="2.00" nVehEntered="0" meanSpeed="4.24" meanTimeLoss="0.69" meanOccupancy="24.84" maxOccupancy="24.84" meanMaxJamLengthInVehicles="0.00" meanMaxJamLengthInMeters="0.00" maxJamLengthInVehicles="0" maxJamLengthInMeters="0.00" jamLengthInVehiclesSum="0" jamLengthInMetersSum="0.00" meanHaltingDuration="0.00" maxHaltingDuration="0.00" haltingDurationSum="0.00" meanIntervalHaltingDuration="0.00" maxIntervalHaltingDuration="0.00" intervalHaltingDurationSum="0.00" startedHalts="0.00" meanVehicleNumber="2.00" maxVehicleNumber="2" />
   <interval begin="7.00" end="8.00" id="SC_0" sampledSeconds="2.00" nVehEntered="0" meanSpeed="3.27" meanTimeLoss="0.76" meanOccupancy="24.43" maxOccupancy="24.43" meanMaxJamLengthInVehicles="0.00" meanMaxJamLengthInMeters="0.00" maxJamLengthInVehicles="0" maxJamLengthInMeters="0.00" jamLengthInVehiclesSum="0" jamLengthInMetersSum="0.00" meanHaltingDuration="0.00" maxHaltingDuration="0.00" haltingDurationSum="0.00" meanIntervalHaltingDuration="0.00" maxIntervalHaltingDuration="0.00" intervalHaltingDurationSum="0.00" startedHalts="0.00" meanVehicleNumber="2.00" maxVehicleNumber="2" />
   <interval begin="8.00" end="9.00" id="SC_0" sampledSeconds="1.96" nVehEntered="0" meanSpeed="4.92" meanTimeLoss="0.63" meanOccupancy="12.42" maxOccupancy="12.42" meanMaxJamLengthInVehicles="0.00" meanMaxJamLengthInMeters="0.00" maxJamLengthInVehicles="0" maxJamLengthInMeters="0.00" jamLengthInVehiclesSum="0" jamLengthInMetersSum="0.00" meanHaltingDuration="0.00" maxHaltingDuration="0.00" haltingDurationSum="0.00" meanIntervalHaltingDuration="0.00" maxIntervalHaltingDuration="0.00" intervalHaltingDurationSum="0.00" startedHalts="0.00" meanVehicleNumber="2.00" maxVehicleNumber="2" />
   <interval begin="9.00" end="10.00" id="SC_0" sampledSeconds="1.00" nVehEntered="0" meanSpeed="7.28" meanTimeLoss="0.48" meanOccupancy="12.42" maxOccupancy="12.42" meanMaxJamLengthInVehicles="0.00" meanMaxJamLengthInMeters="0.00" maxJamLengthInVehicles="0" maxJamLengthInMeters="0.00" jamLengthInVehiclesSum="0" jamLengthInMetersSum="0.00" meanHaltingDuration="0.00" maxHaltingDuration="0.00" haltingDurationSum="0.00" meanIntervalHaltingDuration="0.00" maxIntervalHaltingDuration="0.00" intervalHaltingDurationSum="0.00" startedHalts="0.00" meanVehicleNumber="1.00" maxVehicleNumber="1" />
   <interval begin="10.00" end="11.00" id="SC_0" sampledSeconds="1.00" nVehEntered="0" meanSpeed="9.86" meanTimeLoss="0.29" meanOccupancy="12.42" maxOccupancy="12.42" meanMaxJamLengthInVehicles="0.00" meanMaxJamLengthInMeters="0.00" maxJamLengthInVehicles="0" maxJamLengthInMeters="0.00" jamLengthInVehiclesSum="0" jamLengthInMetersSum="0.00" meanHaltingDuration="0.00" maxHaltingDuration="0.00" haltingDurationSum="0.00" meanIntervalHaltingDuration="0.00" maxIntervalHaltingDuration="0.00" intervalHaltingDurationSum="0.00" startedHalts="0.00" meanVehicleNumber="1.00" maxVehicleNumber="1" />
   <interval begin="11.00" end="12.00" id="SC_0" sampledSeconds="2.00" nVehEntered="0" meanSpeed="4.34" meanTimeLoss="0.69" meanOccupancy="24.84" maxOccupancy="24.84" meanMaxJamLengthInVehicles="0.00" meanMaxJamLengthInMeters="0.00" maxJamLengthInVehicles="0" maxJamLengthInMeters="0.00" jamLengthInVehiclesSum="0" jamLengthInMetersSum="0.00" meanHaltingDuration="0.00" maxHaltingDuration="0.00" haltingDurationSum="0.00" meanIntervalHaltingDuration="0.00" maxIntervalHaltingDuration="0.00" intervalHaltingDurationSum="0.00" startedHalts="0.00" meanVehicleNumber="2.00" maxVehicleNumber="2" />
   <interval begin="12.00" end="13.00" id="SC_0" sampledSeconds="1.72" nVehEntered="0" meanSpeed="5.89" meanTimeLoss="0.50" meanOccupancy="12.42" maxOccupancy="12.42" meanMaxJamLengthInVehicles="0.00" meanMaxJamLengthInMeters="0.00" maxJamLengthInVehicles="0" maxJamLengthInMeters="0.00" jamLengthInVehiclesSum="0" jamLengthInMetersSum="0.00" meanHaltingDuration="0.00" maxHaltingDuration="0.00" haltingDurationSum="0.00" meanIntervalHaltingDuration="0.00" maxIntervalHaltingDuration="0.00" intervalHaltingDurationSum="0.00" startedHalts="0.00" meanVehicleNumber="2.00" maxVehicleNumber="2" />
   <interval begin="13.00" end="14.00" id="SC_0" sampledSeconds="1.00" nVehEntered="0" meanSpeed="4.73" meanTimeLoss="0.66" meanOccupancy="12.42" maxOccupancy="12.42" meanMaxJamLengthInVehicles="0.00" meanMaxJamLengthInMeters="0.00" maxJamLengthInVehicles="0" maxJamLengthInMeters="0.00" jamLengthInVehiclesSum="0" jamLengthInMetersSum="0.00" meanHaltingDuration="0.00" maxHaltingDuration="0.00" haltingDurationSum="0.00" meanIntervalHaltingDuration="0.00" maxIntervalHaltingDuration="0.00" intervalHaltingDurationSum="0.00" startedHalts="0.00" meanVehicleNumber="1.00" maxVehicleNumber="1" />
   <interval begin="14.00" end="15.00" id="SC_0" sampledSeconds="1.00" nVehEntered="0" meanSpeed="7.15" meanTimeLoss="0.48" meanOccupancy="12.42" maxOccupancy="12.42" meanMaxJamLengthInVehicles="0.00" meanMaxJamLengthInMeters="0.00" maxJamLengthInVehicles="0" maxJamLengthInMeters="0.00" jamLengthInVehiclesSum="0" jamLengthInMetersSum="0.00" meanHaltingDuration="0.00" maxHaltingDuration="0.00" haltingDurationSum="0.00" meanIntervalHaltingDuration="0.00" maxIntervalHaltingDuration="0.00" intervalHaltingDurationSum="0.00" startedHalts="0.00" meanVehicleNumber="1.00" maxVehicleNumber="1" />
   <interval begin="15.00" end="16.00" id="SC_0" sampledSeconds="1.00" nVehEntered="0" meanSpeed="8.48" meanTimeLoss="0.39" meanOccupancy="12.42" maxOccupancy="12.42" meanMaxJamLengthInVehicles="0.00" meanMaxJamLengthInMeters="0.00" maxJamLengthInVehicles="0" maxJamLengthInMeters="0.00" jamLengthInVehiclesSum="0" jamLengthInMetersSum="0.00" meanHaltingDuration="0.00" maxHaltingDuration="0.00" haltingDurationSum="0.00" meanIntervalHaltingDuration="0.00" maxIntervalHaltingDuration="0.00" intervalHaltingDurationSum="0.00" startedHalts="0.00" meanVehicleNumber="1.00" maxVehicleNumber="1" />
   <interval begin="16.00" end="17.00" id="SC_0" sampledSeconds="2.00" nVehEntered="0" meanSpeed="4.79" meanTimeLoss="0.66" meanOccupancy="24.84" maxOccupancy="24.84" meanMaxJamLengthInVehicles="0.00" meanMaxJamLengthInMeters="0.00" maxJamLengthInVehicles="0" maxJamLengthInMeters="0.00" jamLengthInVehiclesSum="0" jamLengthInMetersSum="0.00" meanHaltingDuration="0.00" maxHaltingDuration="0.00" haltingDurationSum="0.00" meanIntervalHaltingDuration="0.00" maxIntervalHaltingDuration="0.00" intervalHaltingDurationSum="0.00" startedHalts="0.00" meanVehicleNumber="2.00" maxVehicleNumber="2" />
   <interval begin="17.00" end="18.00" id="SC_0" sampledSeconds="1.82" nVehEntered="0" meanSpeed="6.53" meanTimeLoss="0.48" meanOccupancy="12.42" maxOccupancy="12.42" meanMaxJamLengthInVehicles="0.00" meanMaxJamLengthInMeters="0.00" maxJamLengthInVehicles="0" maxJamLengthInMeters="0.00" jamLengthInVehiclesSum="0" jamLengthInMetersSum="0.00" meanHaltingDuration="0.00" maxHaltingDuration="0.00" haltingDurationSum="0.00" meanIntervalHaltingDuration="0.00" maxIntervalHaltingDuration="0.00" intervalHaltingDurationSum="0.00" startedHalts="0.00" meanVehicleNumber="2.00" maxVehicleNumber="2" />
   <interval begin="18.00" end="19.00" id="SC_0" sampledSeconds="1.00" nVehEntered="0" meanSpeed="7.05" meanTimeLoss="0.49" meanOccupancy="12.42" maxOccupancy="12.42" meanMaxJamLengthInVehicles="0.00" meanMaxJamLengthInMeters="0.00" maxJamLengthInVehicles="0" maxJamLengthInMeters="0.00" jamLengthInVehiclesSum="0" jamLengthInMetersSum="0.00" meanHaltingDuration="0.00" maxHaltingDuration="0.00" haltingDurationSum="0.00" meanIntervalHaltingDuration="0.00" maxIntervalHaltingDuration="0.00" intervalHaltingDurationSum="0.00" startedHalts="0.00" meanVehicleNumber="1.00" maxVehicleNumber="1" />
   <interval begin="19.00" end="20.00" id="SC_0" sampledSeconds="1.00" nVehEntered="0" meanSpeed="8.67" meanTimeLoss="0.38" meanOccupancy="12.42" maxOccupancy="12.42" meanMaxJamLengthInVehicles="0.00" meanMaxJamLengthInMeters="0.00" maxJamLengthInVehicles="0" maxJamLengthInMeters="0.00" jamLengthInVehiclesSum="0" jamLengthInMetersSum="0.00" meanHaltingDuration="0.00" maxHaltingDuration="0.00" haltingDurationSum="0.00" meanIntervalHaltingDuration="0.00" maxIntervalHaltingDuration="0.00" intervalHaltingDurationSum="0.00" startedHalts="0.00" meanVehicleNumber="1.00" maxVehicleNumber="1" />
   <interval begin="20.00" end="21.00" id="SC_0" sampledSeconds="1.00" nVehEntered="0" meanSpeed="8.21" meanTimeLoss="0.41" meanOccupancy="12.42" maxOccupancy="12.42" meanMaxJamLengthInVehicles="0.00" meanMaxJamLengthInMeters="0.00" maxJamLengthInVehicles="0" maxJamLengthInMeters="0.00" jamLengthInVehiclesSum="0" jamLengthInMetersSum="0.00" meanHaltingDuration="0.00" maxHaltingDuration="0.00" haltingDurationSum="0.00" meanIntervalHaltingDuration="0.00" maxIntervalHaltingDuration="0.00" intervalHaltingDurationSum="0.00" startedHalts="0.00" meanVehicleNumber="1.00" maxVehicleNumber="1" />
   <interval begin="21.00" end="22.00" id="SC_0" sampledSeconds="2.00" nVehEntered="0" meanSpeed="3.33" meanTimeLoss="0.76" meanOccupancy="23.36" maxOccupancy="23.36" meanMaxJamLengthInVehicles="0.00" meanMaxJamLengthInMeters="0.00" maxJamLengthInVehicles="0" maxJamLengthInMeters="0.00" jamLengthInVehiclesSum="0" jamLengthInMetersSum="0.00" meanHaltingDuration="0.00" maxHaltingDuration="0.00" haltingDurationSum="0.00" meanIntervalHaltingDuration="0.00" maxIntervalHaltingDuration="0.00" intervalHaltingDurationSum="0.00" startedHalts="0.00" meanVehicleNumber="2.00" maxVehicleNumber="2" />
   <interval begin="22.00" end="23.00" id="SC_0" sampledSeconds="1.62" nVehEntered="0" meanSpeed="5.34" meanTimeLoss="0.50" meanOccupancy="12.42" maxOccupancy="12.42" meanMaxJamLengthInVehicles="0.00" meanMaxJamLengthInMeters="0.00" maxJamLengthInVehicles="0" maxJamLengthInMeters="0.00" jamLengthInVehiclesSum="0" jamLengthInMetersSum="0.00" meanHaltingDuration="0.00" maxHaltingDuration="0.00" haltingDurationSum="0.00" meanIntervalHaltingDuration="0.00" maxIntervalHaltingDuration="0.00" intervalHaltingDurationSum="0.00" startedHalts="0.00" meanVehicleNumber="2.00" maxVehicleNumber="2" />
   <interval begin="23.00" end="24.00" id="SC_0" sampledSeconds="1.00" nVehEntered="0" meanSpeed="6.14" meanTimeLoss="0.56" meanOccupancy="12.42" maxOccupancy="12.42" meanMaxJamLengthInVehicles="0.00" meanMaxJamLengthInMeters="0.00" maxJamLengthInVehicles="0" maxJamLengthInMeters="0.00" jamLengthInVehiclesSum="0" jamLengthInMetersSum="0.00" meanHaltingDuration="0.00" maxHaltingDuration="0.00" haltingDurationSum="0.00" meanIntervalHaltingDuration="0.00" maxIntervalHaltingDuration="0.00" intervalHaltingDurationSum="0.00" startedHalts="0.00" meanVehicleNumber="1.00" maxVehicleNumber="1" />
   <interval begin="24.00" end="25.00" id="SC_0" sampledSeconds="1.00" nVehEntered="0" meanSpeed="7.64" meanTimeLoss="0.45" meanOccupancy="12.42" maxOccupancy="12.42" meanMaxJamLengthInVehicles="0.00" meanMaxJamLengthInMeters="0.00" maxJamLengthInVehicles="0" maxJamLengthInMeters="0.00" jamLengthInVehiclesSum="0" jamLengthInMetersSum="0.00" meanHaltingDuration="0.00" maxHaltingDuration="0.00" haltingDurationSum="0.00" meanIntervalHaltingDuration="0.00" maxIntervalHaltingDuration="0.00" intervalHaltingDurationSum="0.00" startedHalts="0.00" meanVehicleNumber="1.00" maxVehicleNumber="1" />
   <interval begin="25.00" end="26.00" id="SC_0" sampledSeconds="1.00" nVehEntered="0" meanSpeed="9.85" meanTimeLoss="0.29" meanOccupancy="12.42" maxOccupancy="12.42" meanMaxJamLengthInVehicles="0.00" meanMaxJamLengthInMeters="0.00" maxJamLengthInVehicles="0" maxJamLengthInMeters="0.00" jamLengthInVehiclesSum="0" jamLengthInMetersSum="0.00" meanHaltingDuration="0.00" maxHaltingDuration="0.00" haltingDurationSum="0.00" meanIntervalHaltingDuration="0.00" maxIntervalHaltingDuration="0.00" intervalHaltingDurationSum="0.00" startedHalts="0.00" meanVehicleNumber="1.00" maxVehicleNumber="1" />
   <interval begin="26.00" end="27.00" id="SC_0" sampledSeconds="2.00" nVehEntered="0" meanSpeed="3.37" meanTimeLoss="0.76" meanOccupancy="24.84" maxOccupancy="24.84" meanMaxJamLengthInVehicles="0.00" meanMaxJamLengthInMeters="0.00" maxJamLengthInVehicles="0" maxJamLengthInMeters="0.00" jamLengthInVehiclesSum="0" jamLengthInMetersSum="0.00" meanHaltingDuration="0.00" maxHaltingDuration="0.00" haltingDurationSum="0.00" meanIntervalHaltingDuration="0.00" maxIntervalHaltingDuration="0.00" intervalHaltingDurationSum="0.00" startedHalts="0.00" meanVehicleNumber="2.00" maxVehicleNumber="2" />
   <interval begin="27.00" end="28.00" id="SC_0" sampledSeconds="1.77" nVehEntered="0" meanSpeed="4.94" meanTimeLoss="0.57" meanOccupancy="12.42" maxOccupancy="12.42" meanMaxJamLengthInVehicles="0.00" meanMaxJamLengthInMeters="0.00" maxJamLengthInVehicles="0" maxJamLengthInMeters="0.00" jamLengthInVehiclesSum="0" jamLengthInMetersSum="0.00" meanHaltingDuration="0.00" maxHaltingDuration="0.00" haltingDurationSum="0.00" meanIntervalHaltingDuration="0.00" maxIntervalHaltingDuration="0.00" intervalHaltingDurationSum="0.00" startedHalts="0.00" meanVehicleNumber="2.00" maxVehicleNumber="2" />
   <interval begin="28.00" end="29.00" id="SC_0" sampledSeconds="1.00" nVehEntered="0" meanSpeed="5.28" meanTimeLoss="0.62" meanOccupancy="12.42" maxOccupancy="12.42" meanMaxJamLengthInVehicles="0.00" meanMaxJamLengthInMeters="0.00" maxJamLengthInVehicles="0" maxJamLengthInMeters="0.00" jamLengthInVehiclesSum="0" jamLengthInMetersSum="0.00" meanHaltingDuration="0.00" maxHaltingDuration="0.00" haltingDurationSum="0.00" meanIntervalHaltingDuration="0.00" maxIntervalHaltingDuration="0.00" intervalHaltingDurationSum="0.00" startedHalts="0.00" meanVehicleNumber="1.00" maxVehicleNumber="1" />
   <interval begin="29.00" end="30.00" id="SC_0" sampledSeconds="1.00" nVehEntered="0" meanSpeed="7.54" meanTimeLoss="0.46" meanOccupancy="12.42" maxOccupancy="12.42" meanMaxJamLengthInVehicles="0.00" meanMaxJamLengthInMeters="0.00" maxJamLengthInVehicles="0" maxJamLengthInMeters="0.00" jamLengthInVehiclesSum="0" jamLengthInMetersSum="0.00" meanHaltingDuration="0.00" maxHaltingDuration="0.00" haltingDurationSum="0.00" meanIntervalHaltingDuration="0.00" maxIntervalHaltingDuration="0.00" intervalHaltingDurationSum="0.00" startedHalts="0.00" meanVehicleNumber="1.00" maxVehicleNumber="1" />
   <interval begin="30.00" end="31.00" id="SC_0" sampledSeconds="1.00" nVehEntered="0" meanSpeed="9.55" meanTimeLoss="0.31" meanOccupancy="12.42" maxOccupancy="12.42" meanMaxJamLengthInVehicles="0.00" meanMaxJamLengthInMeters="0.00" maxJamLengthInVehicles="0" maxJamLengthInMeters="0.00" jamLengthInVehiclesSum="0" jamLengthInMetersSum="0.00" meanHaltingDuration="0.00" maxHaltingDuration="0.00" haltingDurationSum="0.00" meanIntervalHaltingDuration="0.00" maxIntervalHaltingDuration="0.00" intervalHaltingDurationSum="0.00" startedHalts="0.00" meanVehicleNumber="1.00" maxVehicleNumber="1" />
   <interval begin="31.00" end="32.00" id="SC_0" sampledSeconds="2.00" nVehEntered="0" meanSpeed="4.47" meanTimeLoss="0.68" meanOccupancy="24.84" maxOccupancy="24.84" meanMaxJamLengthInVehicles="0.00" meanMaxJamLengthInMeters="0.00" maxJamLengthInVehicles="0" maxJamLengthInMeters="0.00" jamLengthInVehiclesSum="0" jamLengthInMetersSum="0.00" meanHaltingDuration="0.00" maxHaltingDuration="0.00" haltingDurationSum="0.00" meanIntervalHaltingDuration="0.00" maxIntervalHaltingDuration="0.00" intervalHaltingDurationSum="0.00" startedHalts="0.00" meanVehicleNumber="2.00" maxVehicleNumber="2" />
   <interval begin="32.00" end="33.00" id="SC_0" sampledSeconds="1.76" nVehEntered="0" meanSpeed="5.80" meanTimeLoss="0.51" meanOccupancy="12.42" maxOccupancy="12.42" meanMaxJamLengthInVehicles="0.00" meanMaxJamLengthInMeters="0.00" maxJamLengthInVehicles="0" maxJamLengthInMeters="0.00" jamLengthInVehiclesSum="0" jamLengthInMetersSum="0.00" meanHaltingDuration="0.00" maxHaltingDuration="0.00" haltingDurationSum="0.00" meanIntervalHaltingDuration="0.00" maxIntervalHaltingDuration="0.00" intervalHaltingDurationSum="0.00" startedHalts="0.00" meanVehicleNumber="2.00" maxVehicleNumber="2" />
   <interval begin="33.00" end="34.00" id="SC_0" sampledSeconds="1.00" nVehEntered="0" meanSpeed="6.22" meanTimeLoss="0.55" meanOccupancy="12.42" maxOccupancy="12.42" meanMaxJamLengthInVehicles="0.00" meanMaxJamLengthInMeters="0.00" maxJamLengthInVehicles="0" maxJamLengthInMeters="0.00" jamLengthInVehiclesSum="0" jamLengthInMetersSum="0.00" meanHaltingDuration="0.00" maxHaltingDuration="0.00" haltingDurationSum="0.00" meanIntervalHaltingDuration="0.00" maxIntervalHaltingDuration="0.00" intervalHaltingDurationSum="0.00" startedHalts="0.00" meanVehicleNumber="1.00" maxVehicleNumber="1" />
   <interval begin="34.00" end="35.00" id="SC_0" sampledSeconds="1.00" nVehEntered="0" meanSpeed="8.44" meanTimeLoss="0.39" meanOccupancy="12.42" maxOccupancy="12.42" meanMaxJamLengthInVehicles="0.00" meanMaxJamLengthInMeters="0.00" maxJamLengthInVehicles="0" maxJamLengthInMeters="0.00" jamLengthInVehiclesSum="0" jamLengthInMetersSum="0.00" meanHaltingDuration="0.00" maxHaltingDuration="0.00" haltingDurationSum="0.00" meanIntervalHaltingDuration="0.00" maxIntervalHaltingDuration="0.00" intervalHaltingDurationSum="0.00" startedHalts="0.00" meanVehicleNumber="1.00" maxVehicleNumber="1" />
   <interval begin="35.00" end="36.00" id="SC_0" sampledSeconds="1.00" nVehEntered="0" meanSpeed="9.08" meanTimeLoss="0.35" meanOccupancy="12.42" maxOccupancy="12.42" meanMaxJamLengthInVehicles="0.00" meanMaxJamLengthInMeters="0.00" maxJamLengthInVehicles="0" maxJamLengthInMeters="0.00" jamLengthInVehiclesSum="0" jamLengthInMetersSum="0.00" meanHaltingDuration="0.00" maxHaltingDuration="0.00" haltingDurationSum="0.00" meanIntervalHaltingDuration="0.00" maxIntervalHaltingDuration="0.00" intervalHaltingDurationSum="0.00" startedHalts="0.00" meanVehicleNumber="1.00" maxVehicleNumber="1" />
   <interval begin="36.00" end="37.00" id="SC_0" sampledSeconds="2.00" nVehEntered="0" meanSpeed="3.61" meanTimeLoss="0.74" meanOccupancy="24.84" maxOccupancy="24.84" meanMaxJamLengthInVehicles="0.00" meanMaxJamLengthInMeters="0.00" maxJamLengthInVehicles="0" maxJamLengthInMeters="0.00" jamLengthInVehiclesSum="0" jamLengthInMetersSum="0.00" meanHaltingDuration="0.00" maxHaltingDuration="0.00" haltingDurationSum="0.00" meanIntervalHaltingDuration="0.00" maxIntervalHaltingDuration="0.00" intervalHaltingDurationSum="0.00" startedHalts="0.00" meanVehicleNumber="2.00" maxVehicleNumber="2" />
   <interval begin="37.00" end="38.00" id="SC_0" sampledSeconds="1.82" nVehEntered="0" meanSpeed="5.64" meanTimeLoss="0.54" meanOccupancy="12.42" maxOccupancy="12.42" meanMaxJamLengthInVehicles="0.00" meanMaxJamLengthInMeters="0.00" maxJamLengthInVehicles="0" maxJamLengthInMeters="0.00" jamLengthInVehiclesSum="0" jamLengthInMetersSum="0.00" meanHaltingDuration="0.00" maxHaltingDuration="0.00" haltingDurationSum="0.00" meanIntervalHaltingDuration="0.00" maxIntervalHaltingDuration="0.00" intervalHaltingDurationSum="0.00" startedHalts="0.00" meanVehicleNumber="2.00" maxVehicleNumber="2" />
   <interval begin="38.00" end="39.00" id="SC_0" sampledSeconds="1.00" nVehEntered="0" meanSpeed="6.28" meanTimeLoss="0.55" meanOccupancy="12.42" maxOccupancy="12.42" meanMaxJamLengthInVehicles="0.00" meanMaxJamLengthInMeters="0.00" maxJamLengthInVehicles="0" maxJamLengthInMeters="0.00" jamLengthInVehiclesSum="0" jamLengthInMetersSum="0.00" meanHaltingDuration="0.00" maxHaltingDuration="0.00" haltingDurationSum="0.00" meanIntervalHaltingDuration="0.00" maxIntervalHaltingDuration="0.00" intervalHaltingDurationSum="0.00" startedHalts="0.00" meanVehicleNumber="1.00" maxVehicleNumber="1" />
   <interval begin="39.00" end="40.00" id="SC_0" sampledSeconds="1.00" nVehEntered="0" meanSpeed="8.69" meanTimeLoss="0.37" meanOccupancy="12.42" maxOccupancy="12.42" meanMaxJamLengthInVehicles="0.00" meanMaxJamLengthInMeters="0.00" maxJamLengthInVehicles="0" maxJamLengthInMeters="0.00" jamLengthInVehiclesSum="0" jamLengthInMetersSum="0.00" meanHaltingDuration="0.00" maxHaltingDuration="0.00" haltingDurationSum="0.00" meanIntervalHaltingDuration="0.00" maxIntervalHaltingDuration="0.00" intervalHaltingDurationSum="0.00" startedHalts="0.00" meanVehicleNumber="1.00" maxVehicleNumber="1" />
   <interval begin="40.00" end="41.00" id="SC_0" sampledSeconds="1.00" nVehEntered="0" meanSpeed="8.53" meanTimeLoss="0.39" meanOccupancy="12.42" maxOccupancy="12.42" meanMaxJamLengthInVehicles="0.00" meanMaxJamLengthInMeters="0.00" maxJamLengthInVehicles="0" maxJamLengthInMeters="0.00" jamLengthInVehiclesSum="0" jamLengthInMetersSum="0.00" meanHaltingDuration="0.00" maxHaltingDuration="0.00" haltingDurationSum="0.00" meanIntervalHaltingDuration="0.00" maxIntervalHaltingDuration="0.00" intervalHaltingDurationSum="0.00" startedHalts="0.00" meanVehicleNumber="1.00" maxVehicleNumber="1" />
   <interval begin="41.00" end="42.00" id="SC_0" sampledSeconds="1.00" nVehEntered="0" meanSpeed="4.60" meanTimeLoss="0.67" meanOccupancy="11.48" maxOccupancy="11.48" meanMaxJamLengthInVehicles="0.00" meanMaxJamLengthInMeters="0.00" maxJamLengthInVehicles="0" maxJamLengthInMeters="0.00" jamLengthInVehiclesSum="0" jamLengthInMetersSum="0.00" meanHaltingDuration="0.00" maxHaltingDuration="0.00" haltingDurationSum="0.00" meanIntervalHaltingDuration="0.00" maxIntervalHaltingDuration="0.00" intervalHaltingDurationSum="0.00" startedHalts="0.00" meanVehicleNumber="1.00" maxVehicleNumber="1" />
   <interval begin="42.00" end="43.00" id="SC_0" sampledSeconds="2.00" nVehEntered="0" meanSpeed="0.80" meanTimeLoss="0.94" meanOccupancy="23.35" maxOccupancy="23.35" meanMaxJamLengthInVehicles="0.00" meanMaxJamLengthInMeters="0.00" maxJamLengthInVehicles="0" maxJamLengthInMeters="0.00" jamLengthInVehiclesSum="0" jamLengthInMetersSum="0.00" meanHaltingDuration="1.00" maxHaltingDuration="1.00" haltingDurationSum="2.00" meanIntervalHaltingDuration="1.00" maxIntervalHaltingDuration="1.00" intervalHaltingDurationSum="2.00" startedHalts="2.00" meanVehicleNumber="2.00" maxVehicleNumber="2" />
   <interval begin="43.00" end="44.00" id="SC_0" sampledSeconds="2.00" nVehEntered="0" meanSpeed="1.86" meanTimeLoss="0.87" meanOccupancy="23.18" maxOccupancy="23.18" meanMaxJamLengthInVehicles="1.00" meanMaxJamLengthInMeters="4.33" maxJamLengthInVehicles="1" maxJamLengthInMeters="4.33" jamLengthInVehiclesSum="1" jamLengthInMetersSum="4.33" meanHaltingDuration="1.50" maxHaltingDuration="2.00" haltingDurationSum="3.00" meanIntervalHaltingDuration="0.50" maxIntervalHaltingDuration="1.00" intervalHaltingDurationSum="1.00" startedHalts="0.00" meanVehicleNumber="2.00" maxVehicleNumber="2" />
   <interval begin="44.00" end="45.00" id="SC_0" sampledSeconds="2.00" nVehEntered="0" meanSpeed="2.95" meanTimeLoss="0.79" meanOccupancy="23.12" maxOccupancy="23.12" meanMaxJamLengthInVehicles="1.00" meanMaxJamLengthInMeters="4.31" maxJamLengthInVehicles="1" maxJamLengthInMeters="4.31" jamLengthInVehiclesSum="1" jamLengthInMetersSum="4.31" meanHaltingDuration="3.00" maxHaltingDuration="3.00" haltingDurationSum="3.00" meanIntervalHaltingDuration="1.00" maxIntervalHaltingDuration="1.00" intervalHaltingDurationSum="1.00" startedHalts="0.00" meanVehicleNumber="2.00" maxVehicleNumber="2" />
   <interval begin="45.00" end="46.00" id="SC_0" sampledSeconds="2.00" nVehEntered="0" meanSpeed="3.62" meanTimeLoss="0.74" meanOccupancy="23.11" maxOccupancy="23.11" meanMaxJamLengthInVehicles="1.00" meanMaxJamLengthInMeters="4.30" maxJamLengthInVehicles="1" maxJamLengthInMeters="4.30" jamLengthInVehiclesSum="1" jamLengthInMetersSum="4.30" meanHaltingDuration="4.00" maxHaltingDuration="4.00" haltingDurationSum="4.00" meanIntervalHaltingDuration="1.00" maxIntervalHaltingDuration="1.00" intervalHaltingDurationSum="1.00" startedHalts="0.00" meanVehicleNumber="2.00" maxVehicleNumber="2" />
   <interval begin="46.00" end="47.00" id="SC_0" sampledSeconds="2.00" nVehEntered="0" meanSpeed="3.26" meanTimeLoss="0.77" meanOccupancy="23.11" maxOccupancy="23.11" meanMaxJamLengthInVehicles="1.00" meanMaxJamLengthInMeters="4.30" maxJamLengthInVehicles="1" maxJamLengthInMeters="4.30" jamLengthInVehiclesSum="1" jamLengthInMetersSum="4.30" meanHaltingDuration="5.00" maxHaltingDuration="5.00" haltingDurationSum="5.00" meanIntervalHaltingDuration="1.00" maxIntervalHaltingDuration="1.00" intervalHaltingDurationSum="1.00" startedHalts="0.00" meanVehicleNumber="2.00" maxVehicleNumber="2" />
   <interval begin="47.00" end="48.00" id="SC_0" sampledSeconds="3.00" nVehEntered="0" meanSpeed="1.91" meanTimeLoss="0.86" meanOccupancy="35.53" maxOccupancy="35.53" meanMaxJamLengthInVehicles="1.00" meanMaxJamLengthInMeters="4.30" maxJamLengthInVehicles="1" maxJamLengthInMeters="4.30" jamLengthInVehiclesSum="1" jamLengthInMetersSum="4.30" meanHaltingDuration="6.00" maxHaltingDuration="6.00" haltingDurationSum="6.00" meanIntervalHaltingDuration="1.00" maxIntervalHaltingDuration="1.00" intervalHaltingDurationSum="1.00" startedHalts="0.00" meanVehicleNumber="3.00" maxVehicleNumber="3" />