<?xml version="1.0" encoding="UTF-8"?>

<detector xmlns:xsi="http://www.w3.org/2001/XMLSchema-instance" xsi:noNamespaceSchemaLocation="http://sumo.dlr.de/xsd/det_e2_file.xsd">
   <interval begin="0.00"
     end="1.00"
     id="EC_1"
     sampledSeconds="0.00"
     nVehEntered="0"
     meanSpeed="-1.00"
     meanTimeLoss="-1.00"
     meanOccupancy="0.00"
     maxOccupancy="0.00"
     meanMaxJamLengthInVehicles="0.00"
     meanMaxJamLengthInMeters="0.00"
     maxJamLengthInVehicles="0"
     maxJamLengthInMeters="0.00"
     jamLengthInVehiclesSum="0"
     jamLengthInMetersSum="0.00"
     meanHaltingDuration="0.00"
     maxHaltingDuration="0.00"
     haltingDurationSum="0.00"
     meanIntervalHaltingDuration="0.00"
     maxIntervalHaltingDuration="0.00"
     intervalHaltingDurationSum="0.00"
     startedHalts="0.00"
     meanVehicleNumber="0.00"
     maxVehicleNumber="0"
     />
   <interval begin="1.00"
     end="2.00"
     id="EC_1"
     sampledSeconds="0.00"
     nVehEntered="0"
     meanSpeed="-1.00"
     meanTimeLoss="-1.00"
     meanOccupancy="0.00"
     maxOccupancy="0.00"
     meanMaxJamLengthInVehicles="0.00"
     meanMaxJamLengthInMeters="0.00"
     maxJamLengthInVehicles="0"
     maxJamLengthInMeters="0.00"
     jamLengthInVehiclesSum="0"
     jamLengthInMetersSum="0.00"
     meanHaltingDuration="0.00"
     maxHaltingDuration="0.00"
     haltingDurationSum="0.00"
     meanIntervalHaltingDuration="0.00"
     maxIntervalHaltingDuration="0.00"
     intervalHaltingDurationSum="0.00"
     startedHalts="0.00"
     meanVehicleNumber="0.00"
     maxVehicleNumber="0"
     />
   <interval begin="2.00"
     end="3.00"
     id="EC_1"
     sampledSeconds="0.00"
     nVehEntered="0"
     meanSpeed="-1.00"
     meanTimeLoss="-1.00"
     meanOccupancy="0.00"
     maxOccupancy="0.00"
     meanMaxJamLengthInVehicles="0.00"
     meanMaxJamLengthInMeters="0.00"
     maxJamLengthInVehicles="0"
     maxJamLengthInMeters="0.00"
     jamLengthInVehiclesSum="0"
     jamLengthInMetersSum="0.00"
     meanHaltingDuration="0.00"
     maxHaltingDuration="0.00"
     haltingDurationSum="0.00"
     meanIntervalHaltingDuration="0.00"
     maxIntervalHaltingDuration="0.00"
     intervalHaltingDurationSum="0.00"
     startedHalts="0.00"
     meanVehicleNumber="0.00"
     maxVehicleNumber="0"
     />
   <interval begin="3.00"
     end="4.00"
     id="EC_1"
     sampledSeconds="0.00"
     nVehEntered="0"
     meanSpeed="-1.00"
     meanTimeLoss="-1.00"
     meanOccupancy="0.00"
     maxOccupancy="0.00"
     meanMaxJamLengthInVehicles="0.00"
     meanMaxJamLengthInMeters="0.00"
     maxJamLengthInVehicles="0"
     maxJamLengthInMeters="0.00"
     jamLengthInVehiclesSum="0"
     jamLengthInMetersSum="0.00"
     meanHaltingDuration="0.00"
     maxHaltingDuration="0.00"
     haltingDurationSum="0.00"
     meanIntervalHaltingDuration="0.00"
     maxIntervalHaltingDuration="0.00"
     intervalHaltingDurationSum="0.00"
     startedHalts="0.00"
     meanVehicleNumber="0.00"
     maxVehicleNumber="0"
     />
   <interval begin="4.00"
     end="5.00"
     id="EC_1"
     sampledSeconds="0.00"
     nVehEntered="0"
     meanSpeed="-1.00"
     meanTimeLoss="-1.00"
     meanOccupancy="0.00"
     maxOccupancy="0.00"
     meanMaxJamLengthInVehicles="0.00"
     meanMaxJamLengthInMeters="0.00"
     maxJamLengthInVehicles="0"
     maxJamLengthInMeters="0.00"
     jamLengthInVehiclesSum="0"
     jamLengthInMetersSum="0.00"
     meanHaltingDuration="0.00"
     maxHaltingDuration="0.00"
     haltingDurationSum="0.00"
     meanIntervalHaltingDuration="0.00"
     maxIntervalHaltingDuration="0.00"
     intervalHaltingDurationSum="0.00"
     startedHalts="0.00"
     meanVehicleNumber="0.00"
     maxVehicleNumber="0"
     />
   <interval begin="5.00"
     end="6.00"
     id="EC_1"
     sampledSeconds="0.00"
     nVehEntered="0"
     meanSpeed="-1.00"
     meanTimeLoss="-1.00"
     meanOccupancy="0.00"
     maxOccupancy="0.00"
     meanMaxJamLengthInVehicles="0.00"
     meanMaxJamLengthInMeters="0.00"
     maxJamLengthInVehicles="0"
     maxJamLengthInMeters="0.00"
     jamLengthInVehiclesSum="0"
     jamLengthInMetersSum="0.00"
     meanHaltingDuration="0.00"
     maxHaltingDuration="0.00"
     haltingDurationSum="0.00"
     meanIntervalHaltingDuration="0.00"
     maxIntervalHaltingDuration="0.00"
     intervalHaltingDurationSum="0.00"
     startedHalts="0.00"
     meanVehicleNumber="0.00"
     maxVehicleNumber="0"
     />
   <interval begin="6.00"
     end="7.00"
     id="EC_1"
     sampledSeconds="0.00"
     nVehEntered="0"
     meanSpeed="-1.00"
     meanTimeLoss="-1.00"
     meanOccupancy="0.00"
     maxOccupancy="0.00"
     meanMaxJamLengthInVehicles="0.00"
     meanMaxJamLengthInMeters="0.00"
     maxJamLengthInVehicles="0"
     maxJamLengthInMeters="0.00"
     jamLengthInVehiclesSum="0"
     jamLengthInMetersSum="0.00"
     meanHaltingDuration="0.00"
     maxHaltingDuration="0.00"
     haltingDurationSum="0.00"
     meanIntervalHaltingDuration="0.00"
     maxIntervalHaltingDuration="0.00"
     intervalHaltingDurationSum="0.00"
     startedHalts="0.00"
     meanVehicleNumber="0.00"
     maxVehicleNumber="0"
     />
   <interval begin="7.00"
     end="8.00"
     id="EC_1"
     sampledSeconds="0.00"
     nVehEntered="0"
     meanSpeed="-1.00"
     meanTimeLoss="-1.00"
     meanOccupancy="0.00"
     maxOccupancy="0.00"
     meanMaxJamLengthInVehicles="0.00"
     meanMaxJamLengthInMeters="0.00"
     maxJamLengthInVehicles="0"
     maxJamLengthInMeters="0.00"
     jamLengthInVehiclesSum="0"
     jamLengthInMetersSum="0.00"
     meanHaltingDuration="0.00"
     maxHaltingDuration="0.00"
     haltingDurationSum="0.00"
     meanIntervalHaltingDuration="0.00"
     maxIntervalHaltingDuration="0.00"
     intervalHaltingDurationSum="0.00"
     startedHalts="0.00"
     meanVehicleNumber="0.00"
     maxVehicleNumber="0"
     />
   <interval begin="8.00"
     end="9.00"
     id="EC_1"
     sampledSeconds="0.00"
     nVehEntered="0"
     meanSpeed="-1.00"
     meanTimeLoss="-1.00"
     meanOccupancy="0.00"
     maxOccupancy="0.00"
     meanMaxJamLengthInVehicles="0.00"
     meanMaxJamLengthInMeters="0.00"
     maxJamLengthInVehicles="0"
     maxJamLengthInMeters="0.00"
     jamLengthInVehiclesSum="0"
     jamLengthInMetersSum="0.00"
     meanHaltingDuration="0.00"
     maxHaltingDuration="0.00"
     haltingDurationSum="0.00"
     meanIntervalHaltingDuration="0.00"
     maxIntervalHaltingDuration="0.00"
     intervalHaltingDurationSum="0.00"
     startedHalts="0.00"
     meanVehicleNumber="0.00"
     maxVehicleNumber="0"
     />
   <interval begin="9.00"
     end="10.00"
     id="EC_1"
     sampledSeconds="0.00"
     nVehEntered="0"
     meanSpeed="-1.00"
     meanTimeLoss="-1.00"
     meanOccupancy="0.00"
     maxOccupancy="0.00"
     meanMaxJamLengthInVehicles="0.00"
     meanMaxJamLengthInMeters="0.00"
     maxJamLengthInVehicles="0"
     maxJamLengthInMeters="0.00"
     jamLengthInVehiclesSum="0"
     jamLengthInMetersSum="0.00"
     meanHaltingDuration="0.00"
     maxHaltingDuration="0.00"
     haltingDurationSum="0.00"
     meanIntervalHaltingDuration="0.00"
     maxIntervalHaltingDuration="0.00"
     intervalHaltingDurationSum="0.00"
     startedHalts="0.00"
     meanVehicleNumber="0.00"
     maxVehicleNumber="0"
     />
   <interval begin="10.00"
     end="11.00"
     id="EC_1"
     sampledSeconds="0.00"
     nVehEntered="0"
     meanSpeed="-1.00"
     meanTimeLoss="-1.00"
     meanOccupancy="0.00"
     maxOccupancy="0.00"
     meanMaxJamLengthInVehicles="0.00"
     meanMaxJamLengthInMeters="0.00"
     maxJamLengthInVehicles="0"
     maxJamLengthInMeters="0.00"
     jamLengthInVehiclesSum="0"
     jamLengthInMetersSum="0.00"
     meanHaltingDuration="0.00"
     maxHaltingDuration="0.00"
     haltingDurationSum="0.00"
     meanIntervalHaltingDuration="0.00"
     maxIntervalHaltingDuration="0.00"
     intervalHaltingDurationSum="0.00"
     startedHalts="0.00"
     meanVehicleNumber="0.00"
     maxVehicleNumber="0"
     />
   <interval begin="11.00"
     end="12.00"
     id="EC_1"
     sampledSeconds="0.00"
     nVehEntered="0"
     meanSpeed="-1.00"
     meanTimeLoss="-1.00"
     meanOccupancy="0.00"
     maxOccupancy="0.00"
     meanMaxJamLengthInVehicles="0.00"
     meanMaxJamLengthInMeters="0.00"
     maxJamLengthInVehicles="0"
     maxJamLengthInMeters="0.00"
     jamLengthInVehiclesSum="0"
     jamLengthInMetersSum="0.00"
     meanHaltingDuration="0.00"
     maxHaltingDuration="0.00"
     haltingDurationSum="0.00"
     meanIntervalHaltingDuration="0.00"
     maxIntervalHaltingDuration="0.00"
     intervalHaltingDurationSum="0.00"
     startedHalts="0.00"
     meanVehicleNumber="0.00"
     maxVehicleNumber="0"
     />
   <interval begin="12.00"
     end="13.00"
     id="EC_1"
     sampledSeconds="0.00"
     nVehEntered="0"
     meanSpeed="-1.00"
     meanTimeLoss="-1.00"
     meanOccupancy="0.00"
     maxOccupancy="0.00"
     meanMaxJamLengthInVehicles="0.00"
     meanMaxJamLengthInMeters="0.00"
     maxJamLengthInVehicles="0"
     maxJamLengthInMeters="0.00"
     jamLengthInVehiclesSum="0"
     jamLengthInMetersSum="0.00"
     meanHaltingDuration="0.00"
     maxHaltingDuration="0.00"
     haltingDurationSum="0.00"
     meanIntervalHaltingDuration="0.00"
     maxIntervalHaltingDuration="0.00"
     intervalHaltingDurationSum="0.00"
     startedHalts="0.00"
     meanVehicleNumber="0.00"
     maxVehicleNumber="0"
     />
   <interval begin="13.00"
     end="14.00"
     id="EC_1"
     sampledSeconds="1.00"
     nVehEntered="0"
     meanSpeed="7.93"
     meanTimeLoss="0.43"
     meanOccupancy="5.65"
     maxOccupancy="5.65"
     meanMaxJamLengthInVehicles="0.00"
     meanMaxJamLengthInMeters="0.00"
     maxJamLengthInVehicles="0"
     maxJamLengthInMeters="0.00"
     jamLengthInVehiclesSum="0"
     jamLengthInMetersSum="0.00"
     meanHaltingDuration="0.00"
     maxHaltingDuration="0.00"
     haltingDurationSum="0.00"
     meanIntervalHaltingDuration="0.00"
     maxIntervalHaltingDuration="0.00"
     intervalHaltingDurationSum="0.00"
     startedHalts="0.00"
     meanVehicleNumber="1.00"
     maxVehicleNumber="1"
     />
   <interval begin="14.00"
     end="15.00"
     id="EC_1"
     sampledSeconds="1.00"
     nVehEntered="0"
     meanSpeed="3.92"
     meanTimeLoss="0.72"
     meanOccupancy="3.67"
     maxOccupancy="3.67"
     meanMaxJamLengthInVehicles="0.00"
     meanMaxJamLengthInMeters="0.00"
     maxJamLengthInVehicles="0"
     maxJamLengthInMeters="0.00"
     jamLengthInVehiclesSum="0"
     jamLengthInMetersSum="0.00"
     meanHaltingDuration="0.00"
     maxHaltingDuration="0.00"
     haltingDurationSum="0.00"
     meanIntervalHaltingDuration="0.00"
     maxIntervalHaltingDuration="0.00"
     intervalHaltingDurationSum="0.00"
     startedHalts="0.00"
     meanVehicleNumber="1.00"
     maxVehicleNumber="1"
     />
   <interval begin="15.00"
     end="16.00"
     id="EC_1"
     sampledSeconds="1.00"
     nVehEntered="0"
     meanSpeed="0.65"
     meanTimeLoss="0.95"
     meanOccupancy="2.94"
     maxOccupancy="2.94"
     meanMaxJamLengthInVehicles="0.00"
     meanMaxJamLengthInMeters="0.00"
     maxJamLengthInVehicles="0"
     maxJamLengthInMeters="0.00"
     jamLengthInVehiclesSum="0"
     jamLengthInMetersSum="0.00"
     meanHaltingDuration="1.00"
     maxHaltingDuration="1.00"
     haltingDurationSum="1.00"
     meanIntervalHaltingDuration="1.00"
     maxIntervalHaltingDuration="1.00"
     intervalHaltingDurationSum="1.00"
     startedHalts="1.00"
     meanVehicleNumber="1.00"
     maxVehicleNumber="1"
     />
   <interval begin="16.00"
     end="17.00"
     id="EC_1"
     sampledSeconds="1.00"
     nVehEntered="0"
     meanSpeed="0.00"
     meanTimeLoss="1.00"
     meanOccupancy="2.94"
     maxOccupancy="2.94"
     meanMaxJamLengthInVehicles="1.00"
     meanMaxJamLengthInMeters="2.60"
     maxJamLengthInVehicles="1"
     maxJamLengthInMeters="2.60"
     jamLengthInVehiclesSum="1"
     jamLengthInMetersSum="2.60"
     meanHaltingDuration="2.00"
     maxHaltingDuration="2.00"
     haltingDurationSum="2.00"
     meanIntervalHaltingDuration="1.00"
     maxIntervalHaltingDuration="1.00"
     intervalHaltingDurationSum="1.00"
     startedHalts="0.00"
     meanVehicleNumber="1.00"
     maxVehicleNumber="1"
     />
   <interval begin="17.00"
     end="18.00"
     id="EC_1"
     sampledSeconds="1.00"
     nVehEntered="0"
     meanSpeed="0.00"
     meanTimeLoss="1.00"
     meanOccupancy="2.94"
     maxOccupancy="2.94"
     meanMaxJamLengthInVehicles="1.00"
     meanMaxJamLengthInMeters="2.60"
     maxJamLengthInVehicles="1"
     maxJamLengthInMeters="2.60"
     jamLengthInVehiclesSum="1"
     jamLengthInMetersSum="2.60"
     meanHaltingDuration="3.00"
     maxHaltingDuration="3.00"
     haltingDurationSum="3.00"
     meanIntervalHaltingDuration="1.00"
     maxIntervalHaltingDuration="1.00"
     intervalHaltingDurationSum="1.00"
     startedHalts="0.00"
     meanVehicleNumber="1.00"
     maxVehicleNumber="1"
     />
   <interval begin="18.00"
     end="19.00"
     id="EC_1"
     sampledSeconds="1.00"
     nVehEntered="0"
     meanSpeed="0.00"
     meanTimeLoss="1.00"
     meanOccupancy="2.94"
     maxOccupancy="2.94"
     meanMaxJamLengthInVehicles="1.00"
     meanMaxJamLengthInMeters="2.60"
     maxJamLengthInVehicles="1"
     maxJamLengthInMeters="2.60"
     jamLengthInVehiclesSum="1"
     jamLengthInMetersSum="2.60"
     meanHaltingDuration="4.00"
     maxHaltingDuration="4.00"
     haltingDurationSum="4.00"
     meanIntervalHaltingDuration="1.00"
     maxIntervalHaltingDuration="1.00"
     intervalHaltingDurationSum="1.00"
     startedHalts="0.00"
     meanVehicleNumber="1.00"
     maxVehicleNumber="1"
     />
   <interval begin="19.00"
     end="20.00"
     id="EC_1"
     sampledSeconds="2.00"
     nVehEntered="0"
     meanSpeed="2.98"
     meanTimeLoss="0.79"
     meanOccupancy="8.58"
     maxOccupancy="8.58"
     meanMaxJamLengthInVehicles="1.00"
     meanMaxJamLengthInMeters="2.60"
     maxJamLengthInVehicles="1"
     maxJamLengthInMeters="2.60"
     jamLengthInVehiclesSum="1"
     jamLengthInMetersSum="2.60"
     meanHaltingDuration="5.00"
     maxHaltingDuration="5.00"
     haltingDurationSum="5.00"
     meanIntervalHaltingDuration="1.00"
     maxIntervalHaltingDuration="1.00"
     intervalHaltingDurationSum="1.00"
     startedHalts="0.00"
     meanVehicleNumber="2.00"
     maxVehicleNumber="2"
     />
   <interval begin="20.00"
     end="21.00"
     id="EC_1"
     sampledSeconds="2.00"
     nVehEntered="0"
     meanSpeed="1.02"
     meanTimeLoss="0.93"
     meanOccupancy="8.58"
     maxOccupancy="8.58"
     meanMaxJamLengthInVehicles="1.00"
     meanMaxJamLengthInMeters="2.60"
     maxJamLengthInVehicles="1"
     maxJamLengthInMeters="2.60"
     jamLengthInVehiclesSum="1"
     jamLengthInMetersSum="2.60"
     meanHaltingDuration="6.00"
     maxHaltingDuration="6.00"
     haltingDurationSum="6.00"
     meanIntervalHaltingDuration="1.00"
     maxIntervalHaltingDuration="1.00"
     intervalHaltingDurationSum="1.00"
     startedHalts="0.00"
     meanVehicleNumber="2.00"
     maxVehicleNumber="2"
     />
   <interval begin="21.00"
     end="22.00"
     id="EC_1"
     sampledSeconds="2.00"
     nVehEntered="0"
     meanSpeed="0.23"
     meanTimeLoss="0.98"
     meanOccupancy="8.58"
     maxOccupancy="8.58"
     meanMaxJamLengthInVehicles="1.00"
     meanMaxJamLengthInMeters="2.60"
     maxJamLengthInVehicles="1"
     maxJamLengthInMeters="2.60"
     jamLengthInVehiclesSum="1"
     jamLengthInMetersSum="2.60"
     meanHaltingDuration="4.00"
     maxHaltingDuration="7.00"
     haltingDurationSum="8.00"
     meanIntervalHaltingDuration="1.00"
     maxIntervalHaltingDuration="1.00"
     intervalHaltingDurationSum="2.00"
     startedHalts="1.00"
     meanVehicleNumber="2.00"
     maxVehicleNumber="2"
     />
   <interval begin="22.00"
     end="23.00"
     id="EC_1"
     sampledSeconds="2.00"
     nVehEntered="0"
     meanSpeed="0.18"
     meanTimeLoss="0.99"
     meanOccupancy="8.58"
     maxOccupancy="8.58"
     meanMaxJamLengthInVehicles="2.00"
     meanMaxJamLengthInMeters="12.56"
     maxJamLengthInVehicles="2"
     maxJamLengthInMeters="12.56"
     jamLengthInVehiclesSum="2"
     jamLengthInMetersSum="12.56"
     meanHaltingDuration="5.00"
     maxHaltingDuration="8.00"
     haltingDurationSum="10.00"
     meanIntervalHaltingDuration="1.00"
     maxIntervalHaltingDuration="1.00"
     intervalHaltingDurationSum="2.00"
     startedHalts="0.00"
     meanVehicleNumber="2.00"
     maxVehicleNumber="2"
     />
   <interval begin="23.00"
     end="24.00"
     id="EC_1"
     sampledSeconds="2.00"
     nVehEntered="0"
     meanSpeed="0.02"
     meanTimeLoss="1.00"
     meanOccupancy="8.58"
     maxOccupancy="8.58"
     meanMaxJamLengthInVehicles="2.00"
     meanMaxJamLengthInMeters="12.53"
     maxJamLengthInVehicles="2"
     maxJamLengthInMeters="12.53"
     jamLengthInVehiclesSum="2"
     jamLengthInMetersSum="12.53"
     meanHaltingDuration="6.00"
     maxHaltingDuration="9.00"
     haltingDurationSum="12.00"
     meanIntervalHaltingDuration="1.00"
     maxIntervalHaltingDuration="1.00"
     intervalHaltingDurationSum="2.00"
     startedHalts="0.00"
     meanVehicleNumber="2.00"
     maxVehicleNumber="2"
     />
   <interval begin="24.00"
     end="25.00"
     id="EC_1"
     sampledSeconds="3.00"
     nVehEntered="0"
     meanSpeed="2.26"
     meanTimeLoss="0.84"
     meanOccupancy="14.23"
     maxOccupancy="14.23"
     meanMaxJamLengthInVehicles="2.00"
     meanMaxJamLengthInMeters="12.50"
     maxJamLengthInVehicles="2"
     maxJamLengthInMeters="12.50"
     jamLengthInVehiclesSum="2"
     jamLengthInMetersSum="12.50"
     meanHaltingDuration="7.00"
     maxHaltingDuration="10.00"
     haltingDurationSum="14.00"
     meanIntervalHaltingDuration="1.00"
     maxIntervalHaltingDuration="1.00"
     intervalHaltingDurationSum="2.00"
     startedHalts="0.00"
     meanVehicleNumber="3.00"
     maxVehicleNumber="3"
     />
   <interval begin="25.00"
     end="26.00"
     id="EC_1"
     sampledSeconds="3.00"
     nVehEntered="0"
     meanSpeed="1.36"
     meanTimeLoss="0.90"
     meanOccupancy="14.23"
     maxOccupancy="14.23"
     meanMaxJamLengthInVehicles="2.00"
     meanMaxJamLengthInMeters="12.50"
     maxJamLengthInVehicles="2"
     maxJamLengthInMeters="12.50"
     jamLengthInVehiclesSum="2"
     jamLengthInMetersSum="12.50"
     meanHaltingDuration="8.00"
     maxHaltingDuration="11.00"
     haltingDurationSum="16.00"
     meanIntervalHaltingDuration="1.00"
     maxIntervalHaltingDuration="1.00"
     intervalHaltingDurationSum="2.00"
     startedHalts="0.00"
     meanVehicleNumber="3.00"
     maxVehicleNumber="3"
     />
   <interval begin="26.00"
     end="27.00"
     id="EC_1"
     sampledSeconds="3.00"
     nVehEntered="0"
     meanSpeed="0.15"
     meanTimeLoss="0.99"
     meanOccupancy="14.23"
     maxOccupancy="14.23"
     meanMaxJamLengthInVehicles="2.00"
     meanMaxJamLengthInMeters="12.50"
     maxJamLengthInVehicles="2"
     maxJamLengthInMeters="12.50"
     jamLengthInVehiclesSum="2"
     jamLengthInMetersSum="12.50"
     meanHaltingDuration="6.33"
     maxHaltingDuration="12.00"
     haltingDurationSum="19.00"
     meanIntervalHaltingDuration="1.00"
     maxIntervalHaltingDuration="1.00"
     intervalHaltingDurationSum="3.00"
     startedHalts="1.00"
     meanVehicleNumber="3.00"
     maxVehicleNumber="3"
     />
   <interval begin="27.00"
     end="28.00"
     id="EC_1"
     sampledSeconds="3.00"
     nVehEntered="0"
     meanSpeed="0.02"
     meanTimeLoss="1.00"
     meanOccupancy="14.23"
     maxOccupancy="14.23"
     meanMaxJamLengthInVehicles="3.00"
     meanMaxJamLengthInMeters="20.05"
     maxJamLengthInVehicles="3"
     maxJamLengthInMeters="20.05"
     jamLengthInVehiclesSum="3"
     jamLengthInMetersSum="20.05"
     meanHaltingDuration="7.33"
     maxHaltingDuration="13.00"
     haltingDurationSum="22.00"
     meanIntervalHaltingDuration="1.00"
     maxIntervalHaltingDuration="1.00"
     intervalHaltingDurationSum="3.00"
     startedHalts="0.00"
     meanVehicleNumber="3.00"
     maxVehicleNumber="3"
     />
   <interval begin="28.00"
     end="29.00"
     id="EC_1"
     sampledSeconds="3.00"
     nVehEntered="0"
     meanSpeed="0.01"
     meanTimeLoss="1.00"
     meanOccupancy="14.23"
     maxOccupancy="14.23"
     meanMaxJamLengthInVehicles="3.00"
     meanMaxJamLengthInMeters="20.02"
     maxJamLengthInVehicles="3"
     maxJamLengthInMeters="20.02"
     jamLengthInVehiclesSum="3"
     jamLengthInMetersSum="20.02"
     meanHaltingDuration="8.33"
     maxHaltingDuration="14.00"
     haltingDurationSum="25.00"
     meanIntervalHaltingDuration="1.00"
     maxIntervalHaltingDuration="1.00"
     intervalHaltingDurationSum="3.00"
     startedHalts="0.00"
     meanVehicleNumber="3.00"
     maxVehicleNumber="3"
     />
   <interval begin="29.00"
     end="30.00"
     id="EC_1"
     sampledSeconds="3.00"
     nVehEntered="0"
     meanSpeed="0.01"
     meanTimeLoss="1.00"
     meanOccupancy="14.23"
     maxOccupancy="14.23"
     meanMaxJamLengthInVehicles="3.00"
     meanMaxJamLengthInMeters="20.01"
     maxJamLengthInVehicles="3"
     maxJamLengthInMeters="20.01"
     jamLengthInVehiclesSum="3"
     jamLengthInMetersSum="20.01"
     meanHaltingDuration="9.33"
     maxHaltingDuration="15.00"
     haltingDurationSum="28.00"
     meanIntervalHaltingDuration="1.00"
     maxIntervalHaltingDuration="1.00"
     intervalHaltingDurationSum="3.00"
     startedHalts="0.00"
     meanVehicleNumber="3.00"
     maxVehicleNumber="3"
     />
   <interval begin="30.00"
     end="31.00"
     id="EC_1"
     sampledSeconds="4.00"
     nVehEntered="0"
     meanSpeed="1.60"
     meanTimeLoss="0.88"
     meanOccupancy="19.88"
     maxOccupancy="19.88"
     meanMaxJamLengthInVehicles="3.00"
     meanMaxJamLengthInMeters="20.00"
     maxJamLengthInVehicles="3"
     maxJamLengthInMeters="20.00"
     jamLengthInVehiclesSum="3"
     jamLengthInMetersSum="20.00"
     meanHaltingDuration="10.33"
     maxHaltingDuration="16.00"
     haltingDurationSum="31.00"
     meanIntervalHaltingDuration="1.00"
     maxIntervalHaltingDuration="1.00"
     intervalHaltingDurationSum="3.00"
     startedHalts="0.00"
     meanVehicleNumber="4.00"
     maxVehicleNumber="4"
     />
   <interval begin="31.00"
     end="32.00"
     id="EC_1"
     sampledSeconds="4.00"
     nVehEntered="0"
     meanSpeed="0.71"
     meanTimeLoss="0.95"
     meanOccupancy="19.88"
     maxOccupancy="19.88"
     meanMaxJamLengthInVehicles="3.00"
     meanMaxJamLengthInMeters="20.00"
     maxJamLengthInVehicles="3"
     maxJamLengthInMeters="20.00"
     jamLengthInVehiclesSum="3"
     jamLengthInMetersSum="20.00"
     meanHaltingDuration="11.33"
     maxHaltingDuration="17.00"
     haltingDurationSum="34.00"
     meanIntervalHaltingDuration="1.00"
     maxIntervalHaltingDuration="1.00"
     intervalHaltingDurationSum="3.00"
     startedHalts="0.00"
     meanVehicleNumber="4.00"
     maxVehicleNumber="4"
     />
   <interval begin="32.00"
     end="33.00"
     id="EC_1"
     sampledSeconds="4.00"
     nVehEntered="0"
     meanSpeed="0.12"
     meanTimeLoss="0.99"
     meanOccupancy="19.88"
     maxOccupancy="19.88"
     meanMaxJamLengthInVehicles="3.00"
     meanMaxJamLengthInMeters="20.00"
     maxJamLengthInVehicles="3"
     maxJamLengthInMeters="20.00"
     jamLengthInVehiclesSum="3"
     jamLengthInMetersSum="20.00"
     meanHaltingDuration="9.50"
     maxHaltingDuration="18.00"
     haltingDurationSum="38.00"
     meanIntervalHaltingDuration="1.00"
     maxIntervalHaltingDuration="1.00"
     intervalHaltingDurationSum="4.00"
     startedHalts="1.00"
     meanVehicleNumber="4.00"
     maxVehicleNumber="4"
     />
   <interval begin="33.00"
     end="34.00"
     id="EC_1"
     sampledSeconds="4.00"
     nVehEntered="0"
     meanSpeed="0.04"
     meanTimeLoss="1.00"
     meanOccupancy="19.88"
     maxOccupancy="19.88"
     meanMaxJamLengthInVehicles="4.00"
     meanMaxJamLengthInMeters="27.53"
     maxJamLengthInVehicles="4"
     maxJamLengthInMeters="27.53"
     jamLengthInVehiclesSum="4"
     jamLengthInMetersSum="27.53"
     meanHaltingDuration="10.50"
     maxHaltingDuration="19.00"
     haltingDurationSum="42.00"
     meanIntervalHaltingDuration="1.00"
     maxIntervalHaltingDuration="1.00"
     intervalHaltingDurationSum="4.00"
     startedHalts="0.00"
     meanVehicleNumber="4.00"
     maxVehicleNumber="4"
     />
   <interval begin="34.00"
     end="35.00"
     id="EC_1"
     sampledSeconds="5.00"
     nVehEntered="0"
     meanSpeed="1.79"
     meanTimeLoss="0.87"
     meanOccupancy="25.52"
     maxOccupancy="25.52"
     meanMaxJamLengthInVehicles="4.00"
     meanMaxJamLengthInMeters="27.51"
     maxJamLengthInVehicles="4"
     maxJamLengthInMeters="27.51"
     jamLengthInVehiclesSum="4"
     jamLengthInMetersSum="27.51"
     meanHaltingDuration="11.50"
     maxHaltingDuration="20.00"
     haltingDurationSum="46.00"
     meanIntervalHaltingDuration="1.00"
     maxIntervalHaltingDuration="1.00"
     intervalHaltingDurationSum="4.00"
     startedHalts="0.00"
     meanVehicleNumber="5.00"
     maxVehicleNumber="5"
     />
   <interval begin="35.00"
     end="36.00"
     id="EC_1"
     sampledSeconds="5.00"
     nVehEntered="0"
     meanSpeed="0.89"
     meanTimeLoss="0.94"
     meanOccupancy="25.52"
     maxOccupancy="25.52"
     meanMaxJamLengthInVehicles="4.00"
     meanMaxJamLengthInMeters="27.51"
     maxJamLengthInVehicles="4"
     maxJamLengthInMeters="27.51"
     jamLengthInVehiclesSum="4"
     jamLengthInMetersSum="27.51"
     meanHaltingDuration="12.50"
     maxHaltingDuration="21.00"
     haltingDurationSum="50.00"
     meanIntervalHaltingDuration="1.00"
     maxIntervalHaltingDuration="1.00"
     intervalHaltingDurationSum="4.00"
     startedHalts="0.00"
     meanVehicleNumber="5.00"
     maxVehicleNumber="5"
     />
   <interval begin="36.00"
     end="37.00"
     id="EC_1"
     sampledSeconds="5.00"
     nVehEntered="0"
     meanSpeed="0.28"
     meanTimeLoss="0.98"
     meanOccupancy="25.52"
     maxOccupancy="25.52"
     meanMaxJamLengthInVehicles="4.00"
     meanMaxJamLengthInMeters="27.50"
     maxJamLengthInVehicles="4"
     maxJamLengthInMeters="27.50"
     jamLengthInVehiclesSum="4"
     jamLengthInMetersSum="27.50"
     meanHaltingDuration="13.50"
     maxHaltingDuration="22.00"
     haltingDurationSum="54.00"
     meanIntervalHaltingDuration="1.00"
     maxIntervalHaltingDuration="1.00"
     intervalHaltingDurationSum="4.00"
     startedHalts="0.00"
     meanVehicleNumber="5.00"
     maxVehicleNumber="5"
     />
   <interval begin="37.00"
     end="38.00"
     id="EC_1"
     sampledSeconds="5.00"
     nVehEntered="0"
     meanSpeed="0.04"
     meanTimeLoss="1.00"
     meanOccupancy="25.52"
     maxOccupancy="25.52"
     meanMaxJamLengthInVehicles="4.00"
     meanMaxJamLengthInMeters="27.50"
     maxJamLengthInVehicles="4"
     maxJamLengthInMeters="27.50"
     jamLengthInVehiclesSum="4"
     jamLengthInMetersSum="27.50"
     meanHaltingDuration="11.80"
     maxHaltingDuration="23.00"
     haltingDurationSum="59.00"
     meanIntervalHaltingDuration="1.00"
     maxIntervalHaltingDuration="1.00"
     intervalHaltingDurationSum="5.00"
     startedHalts="1.00"
     meanVehicleNumber="5.00"
     maxVehicleNumber="5"
     />
   <interval begin="38.00"
     end="39.00"
     id="EC_1"
     sampledSeconds="5.00"
     nVehEntered="0"
     meanSpeed="0.02"
     meanTimeLoss="1.00"
     meanOccupancy="25.52"
     maxOccupancy="25.52"
     meanMaxJamLengthInVehicles="5.00"
     meanMaxJamLengthInMeters="35.04"
     maxJamLengthInVehicles="5"
     maxJamLengthInMeters="35.04"
     jamLengthInVehiclesSum="5"
     jamLengthInMetersSum="35.04"
     meanHaltingDuration="12.80"
     maxHaltingDuration="24.00"
     haltingDurationSum="64.00"
     meanIntervalHaltingDuration="1.00"
     maxIntervalHaltingDuration="1.00"
     intervalHaltingDurationSum="5.00"
     startedHalts="0.00"
     meanVehicleNumber="5.00"
     maxVehicleNumber="5"
     />
   <interval begin="39.00"
     end="40.00"
     id="EC_1"
     sampledSeconds="5.00"
     nVehEntered="0"
     meanSpeed="0.01"
     meanTimeLoss="1.00"
     meanOccupancy="25.52"
     maxOccupancy="25.52"
     meanMaxJamLengthInVehicles="5.00"
     meanMaxJamLengthInMeters="35.01"
     maxJamLengthInVehicles="5"
     maxJamLengthInMeters="35.01"
     jamLengthInVehiclesSum="5"
     jamLengthInMetersSum="35.01"
     meanHaltingDuration="13.80"
     maxHaltingDuration="25.00"
     haltingDurationSum="69.00"
     meanIntervalHaltingDuration="1.00"
     maxIntervalHaltingDuration="1.00"
     intervalHaltingDurationSum="5.00"
     startedHalts="0.00"
     meanVehicleNumber="5.00"
     maxVehicleNumber="5"
     />
   <interval begin="40.00"
     end="41.00"
     id="EC_1"
     sampledSeconds="6.00"
     nVehEntered="0"
     meanSpeed="1.21"
     meanTimeLoss="0.91"
     meanOccupancy="31.17"
     maxOccupancy="31.17"
     meanMaxJamLengthInVehicles="5.00"
     meanMaxJamLengthInMeters="35.00"
     maxJamLengthInVehicles="5"
     maxJamLengthInMeters="35.00"
     jamLengthInVehiclesSum="5"
     jamLengthInMetersSum="35.00"
     meanHaltingDuration="14.80"
     maxHaltingDuration="26.00"
     haltingDurationSum="74.00"
     meanIntervalHaltingDuration="1.00"
     maxIntervalHaltingDuration="1.00"
     intervalHaltingDurationSum="5.00"
     startedHalts="0.00"
     meanVehicleNumber="6.00"
     maxVehicleNumber="6"
     />
   <interval begin="41.00"
     end="42.00"
     id="EC_1"
     sampledSeconds="6.00"
     nVehEntered="0"
     meanSpeed="0.53"
     meanTimeLoss="0.96"
     meanOccupancy="31.17"
     maxOccupancy="31.17"
     meanMaxJamLengthInVehicles="5.00"
     meanMaxJamLengthInMeters="35.00"
     maxJamLengthInVehicles="5"
     maxJamLengthInMeters="35.00"
     jamLengthInVehiclesSum="5"
     jamLengthInMetersSum="35.00"
     meanHaltingDuration="15.80"
     maxHaltingDuration="27.00"