<?xml version="1.0" encoding="UTF-8"?>

<detector xmlns:xsi="http://www.w3.org/2001/XMLSchema-instance" xsi:noNamespaceSchemaLocation="http://sumo.dlr.de/xsd/det_e2_file.xsd">
   <interval begin="0.00"
     end="1.00"
     id="WC_0"
     sampledSeconds="0.00"
     nVehEntered="0"
     meanSpeed="-1.00"
     meanTimeLoss="-1.00"
     meanOccupancy="0.00"
     maxOccupancy="0.00"
     meanMaxJamLengthInVehicles="0.00"
     meanMaxJamLengthInMeters="0.00"
     maxJamLengthInVehicles="0"
     maxJamLengthInMeters="0.00"
     jamLengthInVehiclesSum="0"
     jamLengthInMetersSum="0.00"
     meanHaltingDuration="0.00"
     maxHaltingDuration="0.00"
     haltingDurationSum="0.00"
     meanIntervalHaltingDuration="0.00"
     maxIntervalHaltingDuration="0.00"
     intervalHaltingDurationSum="0.00"
     startedHalts="0.00"
     meanVehicleNumber="0.00"
     maxVehicleNumber="0"
     />
   <interval begin="1.00"
     end="2.00"
     id="WC_0"
     sampledSeconds="1.00"
     nVehEntered="0"
     meanSpeed="1.89"
     meanTimeLoss="0.86"
     meanOccupancy="5.54"
     maxOccupancy="5.54"
     meanMaxJamLengthInVehicles="0.00"
     meanMaxJamLengthInMeters="0.00"
     maxJamLengthInVehicles="0"
     maxJamLengthInMeters="0.00"
     jamLengthInVehiclesSum="0"
     jamLengthInMetersSum="0.00"
     meanHaltingDuration="0.00"
     maxHaltingDuration="0.00"
     haltingDurationSum="0.00"
     meanIntervalHaltingDuration="0.00"
     maxIntervalHaltingDuration="0.00"
     intervalHaltingDurationSum="0.00"
     startedHalts="0.00"
     meanVehicleNumber="1.00"
     maxVehicleNumber="1"
     />
   <interval begin="2.00"
     end="3.00"
     id="WC_0"
     sampledSeconds="1.00"
     nVehEntered="0"
     meanSpeed="3.70"
     meanTimeLoss="0.73"
     meanOccupancy="5.54"
     maxOccupancy="5.54"
     meanMaxJamLengthInVehicles="0.00"
     meanMaxJamLengthInMeters="0.00"
     maxJamLengthInVehicles="0"
     maxJamLengthInMeters="0.00"
     jamLengthInVehiclesSum="0"
     jamLengthInMetersSum="0.00"
     meanHaltingDuration="0.00"
     maxHaltingDuration="0.00"
     haltingDurationSum="0.00"
     meanIntervalHaltingDuration="0.00"
     maxIntervalHaltingDuration="0.00"
     intervalHaltingDurationSum="0.00"
     startedHalts="0.00"
     meanVehicleNumber="1.00"
     maxVehicleNumber="1"
     />
   <interval begin="3.00"
     end="4.00"
     id="WC_0"
     sampledSeconds="1.00"
     nVehEntered="0"
     meanSpeed="5.75"
     meanTimeLoss="0.59"
     meanOccupancy="5.54"
     maxOccupancy="5.54"
     meanMaxJamLengthInVehicles="0.00"
     meanMaxJamLengthInMeters="0.00"
     maxJamLengthInVehicles="0"
     maxJamLengthInMeters="0.00"
     jamLengthInVehiclesSum="0"
     jamLengthInMetersSum="0.00"
     meanHaltingDuration="0.00"
     maxHaltingDuration="0.00"
     haltingDurationSum="0.00"
     meanIntervalHaltingDuration="0.00"
     maxIntervalHaltingDuration="0.00"
     intervalHaltingDurationSum="0.00"
     startedHalts="0.00"
     meanVehicleNumber="1.00"
     maxVehicleNumber="1"
     />
   <interval begin="4.00"
     end="5.00"
     id="WC_0"
     sampledSeconds="2.00"
     nVehEntered="0"
     meanSpeed="5.00"
     meanTimeLoss="0.64"
     meanOccupancy="11.08"
     maxOccupancy="11.08"
     meanMaxJamLengthInVehicles="0.00"
     meanMaxJamLengthInMeters="0.00"
     maxJamLengthInVehicles="0"
     maxJamLengthInMeters="0.00"
     jamLengthInVehiclesSum="0"
     jamLengthInMetersSum="0.00"
     meanHaltingDuration="0.00"
     maxHaltingDuration="0.00"
     haltingDurationSum="0.00"
     meanIntervalHaltingDuration="0.00"
     maxIntervalHaltingDuration="0.00"
     intervalHaltingDurationSum="0.00"
     startedHalts="0.00"
     meanVehicleNumber="2.00"
     maxVehicleNumber="2"
     />
   <interval begin="5.00"
     end="6.00"
     id="WC_0"
     sampledSeconds="2.00"
     nVehEntered="0"
     meanSpeed="7.04"
     meanTimeLoss="0.49"
     meanOccupancy="11.08"
     maxOccupancy="11.08"
     meanMaxJamLengthInVehicles="0.00"
     meanMaxJamLengthInMeters="0.00"
     maxJamLengthInVehicles="0"
     maxJamLengthInMeters="0.00"
     jamLengthInVehiclesSum="0"
     jamLengthInMetersSum="0.00"
     meanHaltingDuration="0.00"
     maxHaltingDuration="0.00"
     haltingDurationSum="0.00"
     meanIntervalHaltingDuration="0.00"
     maxIntervalHaltingDuration="0.00"
     intervalHaltingDurationSum="0.00"
     startedHalts="0.00"
     meanVehicleNumber="2.00"
     maxVehicleNumber="2"
     />
   <interval begin="6.00"
     end="7.00"
     id="WC_0"
     sampledSeconds="2.00"
     nVehEntered="0"
     meanSpeed="9.01"
     meanTimeLoss="0.35"
     meanOccupancy="11.08"
     maxOccupancy="11.08"
     meanMaxJamLengthInVehicles="0.00"
     meanMaxJamLengthInMeters="0.00"
     maxJamLengthInVehicles="0"
     maxJamLengthInMeters="0.00"
     jamLengthInVehiclesSum="0"
     jamLengthInMetersSum="0.00"
     meanHaltingDuration="0.00"
     maxHaltingDuration="0.00"
     haltingDurationSum="0.00"
     meanIntervalHaltingDuration="0.00"
     maxIntervalHaltingDuration="0.00"
     intervalHaltingDurationSum="0.00"
     startedHalts="0.00"
     meanVehicleNumber="2.00"
     maxVehicleNumber="2"
     />
   <interval begin="7.00"
     end="8.00"
     id="WC_0"
     sampledSeconds="3.00"
     nVehEntered="0"
     meanSpeed="7.93"
     meanTimeLoss="0.43"
     meanOccupancy="16.62"
     maxOccupancy="16.62"
     meanMaxJamLengthInVehicles="0.00"
     meanMaxJamLengthInMeters="0.00"
     maxJamLengthInVehicles="0"
     maxJamLengthInMeters="0.00"
     jamLengthInVehiclesSum="0"
     jamLengthInMetersSum="0.00"
     meanHaltingDuration="0.00"
     maxHaltingDuration="0.00"
     haltingDurationSum="0.00"
     meanIntervalHaltingDuration="0.00"
     maxIntervalHaltingDuration="0.00"
     intervalHaltingDurationSum="0.00"
     startedHalts="0.00"
     meanVehicleNumber="3.00"
     maxVehicleNumber="3"
     />
   <interval begin="8.00"
     end="9.00"
     id="WC_0"
     sampledSeconds="3.00"
     nVehEntered="0"
     meanSpeed="8.90"
     meanTimeLoss="0.36"
     meanOccupancy="16.62"
     maxOccupancy="16.62"
     meanMaxJamLengthInVehicles="0.00"
     meanMaxJamLengthInMeters="0.00"
     maxJamLengthInVehicles="0"
     maxJamLengthInMeters="0.00"
     jamLengthInVehiclesSum="0"
     jamLengthInMetersSum="0.00"
     meanHaltingDuration="0.00"
     maxHaltingDuration="0.00"
     haltingDurationSum="0.00"
     meanIntervalHaltingDuration="0.00"
     maxIntervalHaltingDuration="0.00"
     intervalHaltingDurationSum="0.00"
     startedHalts="0.00"
     meanVehicleNumber="3.00"
     maxVehicleNumber="3"
     />
   <interval begin="9.00"
     end="10.00"
     id="WC_0"
     sampledSeconds="3.00"
     nVehEntered="0"
     meanSpeed="8.93"
     meanTimeLoss="0.36"
     meanOccupancy="16.62"
     maxOccupancy="16.62"
     meanMaxJamLengthInVehicles="0.00"
     meanMaxJamLengthInMeters="0.00"
     maxJamLengthInVehicles="0"
     maxJamLengthInMeters="0.00"
     jamLengthInVehiclesSum="0"
     jamLengthInMetersSum="0.00"
     meanHaltingDuration="0.00"
     maxHaltingDuration="0.00"
     haltingDurationSum="0.00"
     meanIntervalHaltingDuration="0.00"
     maxIntervalHaltingDuration="0.00"
     intervalHaltingDurationSum="0.00"
     startedHalts="0.00"
     meanVehicleNumber="3.00"
     maxVehicleNumber="3"
     />
   <interval begin="10.00"
     end="11.00"
     id="WC_0"
     sampledSeconds="4.00"
     nVehEntered="0"
     meanSpeed="7.35"
     meanTimeLoss="0.47"
     meanOccupancy="22.16"
     maxOccupancy="22.16"
     meanMaxJamLengthInVehicles="0.00"
     meanMaxJamLengthInMeters="0.00"
     maxJamLengthInVehicles="0"
     maxJamLengthInMeters="0.00"
     jamLengthInVehiclesSum="0"
     jamLengthInMetersSum="0.00"
     meanHaltingDuration="0.00"
     maxHaltingDuration="0.00"
     haltingDurationSum="0.00"
     meanIntervalHaltingDuration="0.00"
     maxIntervalHaltingDuration="0.00"
     intervalHaltingDurationSum="0.00"
     startedHalts="0.00"
     meanVehicleNumber="4.00"
     maxVehicleNumber="4"
     />
   <interval begin="11.00"
     end="12.00"
     id="WC_0"
     sampledSeconds="4.00"
     nVehEntered="0"
     meanSpeed="6.26"
     meanTimeLoss="0.55"
     meanOccupancy="22.16"
     maxOccupancy="22.16"
     meanMaxJamLengthInVehicles="0.00"
     meanMaxJamLengthInMeters="0.00"
     maxJamLengthInVehicles="0"
     maxJamLengthInMeters="0.00"
     jamLengthInVehiclesSum="0"
     jamLengthInMetersSum="0.00"
     meanHaltingDuration="0.00"
     maxHaltingDuration="0.00"
     haltingDurationSum="0.00"
     meanIntervalHaltingDuration="0.00"
     maxIntervalHaltingDuration="0.00"
     intervalHaltingDurationSum="0.00"
     startedHalts="0.00"
     meanVehicleNumber="4.00"
     maxVehicleNumber="4"
     />
   <interval begin="12.00"
     end="13.00"
     id="WC_0"
     sampledSeconds="4.00"
     nVehEntered="0"
     meanSpeed="6.42"
     meanTimeLoss="0.54"
     meanOccupancy="21.83"
     maxOccupancy="21.83"
     meanMaxJamLengthInVehicles="0.00"
     meanMaxJamLengthInMeters="0.00"
     maxJamLengthInVehicles="0"
     maxJamLengthInMeters="0.00"
     jamLengthInVehiclesSum="0"
     jamLengthInMetersSum="0.00"
     meanHaltingDuration="1.00"
     maxHaltingDuration="1.00"
     haltingDurationSum="1.00"
     meanIntervalHaltingDuration="1.00"
     maxIntervalHaltingDuration="1.00"
     intervalHaltingDurationSum="1.00"
     startedHalts="1.00"
     meanVehicleNumber="4.00"
     maxVehicleNumber="4"
     />
   <interval begin="13.00"
     end="14.00"
     id="WC_0"
     sampledSeconds="4.00"
     nVehEntered="0"
     meanSpeed="6.15"
     meanTimeLoss="0.56"
     meanOccupancy="21.53"
     maxOccupancy="21.53"
     meanMaxJamLengthInVehicles="1.00"
     meanMaxJamLengthInMeters="4.43"
     maxJamLengthInVehicles="1"
     maxJamLengthInMeters="4.43"
     jamLengthInVehiclesSum="1"
     jamLengthInMetersSum="4.43"
     meanHaltingDuration="2.00"
     maxHaltingDuration="2.00"
     haltingDurationSum="2.00"
     meanIntervalHaltingDuration="1.00"
     maxIntervalHaltingDuration="1.00"
     intervalHaltingDurationSum="1.00"
     startedHalts="0.00"
     meanVehicleNumber="4.00"
     maxVehicleNumber="4"
     />
   <interval begin="14.00"
     end="15.00"
     id="WC_0"
     sampledSeconds="4.00"
     nVehEntered="0"
     meanSpeed="6.84"
     meanTimeLoss="0.51"
     meanOccupancy="21.39"
     maxOccupancy="21.39"
     meanMaxJamLengthInVehicles="1.00"
     meanMaxJamLengthInMeters="4.31"
     maxJamLengthInVehicles="1"
     maxJamLengthInMeters="4.31"
     jamLengthInVehiclesSum="1"
     jamLengthInMetersSum="4.31"
     meanHaltingDuration="3.00"
     maxHaltingDuration="3.00"
     haltingDurationSum="3.00"
     meanIntervalHaltingDuration="1.00"
     maxIntervalHaltingDuration="1.00"
     intervalHaltingDurationSum="1.00"
     startedHalts="0.00"
     meanVehicleNumber="4.00"
     maxVehicleNumber="4"
     />
   <interval begin="15.00"
     end="16.00"
     id="WC_0"
     sampledSeconds="4.00"
     nVehEntered="0"
     meanSpeed="6.73"
     meanTimeLoss="0.52"
     meanOccupancy="21.39"
     maxOccupancy="21.39"
     meanMaxJamLengthInVehicles="1.00"
     meanMaxJamLengthInMeters="4.30"
     maxJamLengthInVehicles="1"
     maxJamLengthInMeters="4.30"
     jamLengthInVehiclesSum="1"
     jamLengthInMetersSum="4.30"
     meanHaltingDuration="4.00"
     maxHaltingDuration="4.00"
     haltingDurationSum="4.00"
     meanIntervalHaltingDuration="1.00"
     maxIntervalHaltingDuration="1.00"
     intervalHaltingDurationSum="1.00"
     startedHalts="0.00"
     meanVehicleNumber="4.00"
     maxVehicleNumber="4"
     />
   <interval begin="16.00"
     end="17.00"
     id="WC_0"
     sampledSeconds="5.00"
     nVehEntered="0"
     meanSpeed="5.32"
     meanTimeLoss="0.62"
     meanOccupancy="26.93"
     maxOccupancy="26.93"
     meanMaxJamLengthInVehicles="1.00"
     meanMaxJamLengthInMeters="4.30"
     maxJamLengthInVehicles="1"
     maxJamLengthInMeters="4.30"
     jamLengthInVehiclesSum="1"
     jamLengthInMetersSum="4.30"
     meanHaltingDuration="5.00"
     maxHaltingDuration="5.00"
     haltingDurationSum="5.00"
     meanIntervalHaltingDuration="1.00"
     maxIntervalHaltingDuration="1.00"
     intervalHaltingDurationSum="1.00"
     startedHalts="0.00"
     meanVehicleNumber="5.00"
     maxVehicleNumber="5"
     />
   <interval begin="17.00"
     end="18.00"
     id="WC_0"
     sampledSeconds="5.00"
     nVehEntered="0"
     meanSpeed="4.54"
     meanTimeLoss="0.67"
     meanOccupancy="26.93"
     maxOccupancy="26.93"
     meanMaxJamLengthInVehicles="1.00"
     meanMaxJamLengthInMeters="4.30"
     maxJamLengthInVehicles="1"
     maxJamLengthInMeters="4.30"
     jamLengthInVehiclesSum="1"
     jamLengthInMetersSum="4.30"
     meanHaltingDuration="3.50"
     maxHaltingDuration="6.00"
     haltingDurationSum="7.00"
     meanIntervalHaltingDuration="1.00"
     maxIntervalHaltingDuration="1.00"
     intervalHaltingDurationSum="2.00"
     startedHalts="1.00"
     meanVehicleNumber="5.00"
     maxVehicleNumber="5"
     />
   <interval begin="18.00"
     end="19.00"
     id="WC_0"
     sampledSeconds="4.00"
     nVehEntered="0"
     meanSpeed="4.59"
     meanTimeLoss="0.67"
     meanOccupancy="21.39"
     maxOccupancy="21.39"
     meanMaxJamLengthInVehicles="2.00"
     meanMaxJamLengthInMeters="12.74"
     maxJamLengthInVehicles="2"
     maxJamLengthInMeters="12.74"
     jamLengthInVehiclesSum="2"
     jamLengthInMetersSum="12.74"
     meanHaltingDuration="4.50"
     maxHaltingDuration="7.00"
     haltingDurationSum="9.00"
     meanIntervalHaltingDuration="1.00"
     maxIntervalHaltingDuration="1.00"
     intervalHaltingDurationSum="2.00"
     startedHalts="0.00"
     meanVehicleNumber="4.00"
     maxVehicleNumber="4"
     />
   <interval begin="19.00"
     end="20.00"
     id="WC_0"
     sampledSeconds="5.00"
     nVehEntered="0"
     meanSpeed="4.76"
     meanTimeLoss="0.66"
     meanOccupancy="26.93"
     maxOccupancy="26.93"
     meanMaxJamLengthInVehicles="2.00"
     meanMaxJamLengthInMeters="12.54"
     maxJamLengthInVehicles="2"
     maxJamLengthInMeters="12.54"
     jamLengthInVehiclesSum="2"
     jamLengthInMetersSum="12.54"
     meanHaltingDuration="5.50"
     maxHaltingDuration="8.00"
     haltingDurationSum="11.00"
     meanIntervalHaltingDuration="1.00"
     maxIntervalHaltingDuration="1.00"
     intervalHaltingDurationSum="2.00"
     startedHalts="0.00"
     meanVehicleNumber="5.00"
     maxVehicleNumber="5"
     />
   <interval begin="20.00"
     end="21.00"
     id="WC_0"
     sampledSeconds="5.00"
     nVehEntered="0"
     meanSpeed="5.01"
     meanTimeLoss="0.64"
     meanOccupancy="26.93"
     maxOccupancy="26.93"
     meanMaxJamLengthInVehicles="2.00"
     meanMaxJamLengthInMeters="12.52"
     maxJamLengthInVehicles="2"
     maxJamLengthInMeters="12.52"
     jamLengthInVehiclesSum="2"
     jamLengthInMetersSum="12.52"
     meanHaltingDuration="6.50"
     maxHaltingDuration="9.00"
     haltingDurationSum="13.00"
     meanIntervalHaltingDuration="1.00"
     maxIntervalHaltingDuration="1.00"
     intervalHaltingDurationSum="2.00"
     startedHalts="0.00"
     meanVehicleNumber="5.00"
     maxVehicleNumber="5"
     />
   <interval begin="21.00"
     end="22.00"
     id="WC_0"
     sampledSeconds="5.00"
     nVehEntered="0"
     meanSpeed="4.88"
     meanTimeLoss="0.65"
     meanOccupancy="26.93"
     maxOccupancy="26.93"
     meanMaxJamLengthInVehicles="2.00"
     meanMaxJamLengthInMeters="12.51"
     maxJamLengthInVehicles="2"
     maxJamLengthInMeters="12.51"
     jamLengthInVehiclesSum="2"
     jamLengthInMetersSum="12.51"
     meanHaltingDuration="7.50"
     maxHaltingDuration="10.00"
     haltingDurationSum="15.00"
     meanIntervalHaltingDuration="1.00"
     maxIntervalHaltingDuration="1.00"
     intervalHaltingDurationSum="2.00"
     startedHalts="0.00"
     meanVehicleNumber="5.00"
     maxVehicleNumber="5"
     />
   <interval begin="22.00"
     end="23.00"
     id="WC_0"
     sampledSeconds="6.00"
     nVehEntered="0"
     meanSpeed="3.56"
     meanTimeLoss="0.74"
     meanOccupancy="32.47"
     maxOccupancy="32.47"
     meanMaxJamLengthInVehicles="2.00"
     meanMaxJamLengthInMeters="12.50"
     maxJamLengthInVehicles="2"
     maxJamLengthInMeters="12.50"
     jamLengthInVehiclesSum="2"
     jamLengthInMetersSum="12.50"
     meanHaltingDuration="8.50"
     maxHaltingDuration="11.00"
     haltingDurationSum="17.00"
     meanIntervalHaltingDuration="1.00"
     maxIntervalHaltingDuration="1.00"
     intervalHaltingDurationSum="2.00"
     startedHalts="0.00"
     meanVehicleNumber="6.00"
     maxVehicleNumber="6"
     />
   <interval begin="23.00"
     end="24.00"
     id="WC_0"
     sampledSeconds="5.00"
     nVehEntered="0"
     meanSpeed="2.97"
     meanTimeLoss="0.79"
     meanOccupancy="26.93"
     maxOccupancy="26.93"
     meanMaxJamLengthInVehicles="2.00"
     meanMaxJamLengthInMeters="12.50"
     maxJamLengthInVehicles="2"
     maxJamLengthInMeters="12.50"
     jamLengthInVehiclesSum="2"
     jamLengthInMetersSum="12.50"
     meanHaltingDuration="6.67"
     maxHaltingDuration="12.00"
     haltingDurationSum="20.00"
     meanIntervalHaltingDuration="1.00"
     maxIntervalHaltingDuration="1.00"
     intervalHaltingDurationSum="3.00"
     startedHalts="1.00"
     meanVehicleNumber="5.00"
     maxVehicleNumber="5"
     />
   <interval begin="24.00"
     end="25.00"
     id="WC_0"
     sampledSeconds="5.00"
     nVehEntered="0"
     meanSpeed="3.76"
     meanTimeLoss="0.73"
     meanOccupancy="26.93"
     maxOccupancy="26.93"
     meanMaxJamLengthInVehicles="3.00"
     meanMaxJamLengthInMeters="20.02"
     maxJamLengthInVehicles="3"
     maxJamLengthInMeters="20.02"
     jamLengthInVehiclesSum="3"
     jamLengthInMetersSum="20.02"
     meanHaltingDuration="7.67"
     maxHaltingDuration="13.00"
     haltingDurationSum="23.00"
     meanIntervalHaltingDuration="1.00"
     maxIntervalHaltingDuration="1.00"
     intervalHaltingDurationSum="3.00"
     startedHalts="0.00"
     meanVehicleNumber="5.00"
     maxVehicleNumber="5"
     />
   <interval begin="25.00"
     end="26.00"
     id="WC_0"
     sampledSeconds="6.00"
     nVehEntered="0"
     meanSpeed="3.21"
     meanTimeLoss="0.77"
     meanOccupancy="32.47"
     maxOccupancy="32.47"
     meanMaxJamLengthInVehicles="3.00"
     meanMaxJamLengthInMeters="20.01"
     maxJamLengthInVehicles="3"
     maxJamLengthInMeters="20.01"
     jamLengthInVehiclesSum="3"
     jamLengthInMetersSum="20.01"
     meanHaltingDuration="8.67"
     maxHaltingDuration="14.00"
     haltingDurationSum="26.00"
     meanIntervalHaltingDuration="1.00"
     maxIntervalHaltingDuration="1.00"
     intervalHaltingDurationSum="3.00"
     startedHalts="0.00"
     meanVehicleNumber="6.00"
     maxVehicleNumber="6"
     />
   <interval begin="26.00"
     end="27.00"
     id="WC_0"
     sampledSeconds="6.00"
     nVehEntered="0"
     meanSpeed="3.33"
     meanTimeLoss="0.76"
     meanOccupancy="32.47"
     maxOccupancy="32.47"
     meanMaxJamLengthInVehicles="3.00"
     meanMaxJamLengthInMeters="20.00"
     maxJamLengthInVehicles="3"
     maxJamLengthInMeters="20.00"
     jamLengthInVehiclesSum="3"
     jamLengthInMetersSum="20.00"
     meanHaltingDuration="9.67"
     maxHaltingDuration="15.00"
     haltingDurationSum="29.00"
     meanIntervalHaltingDuration="1.00"
     maxIntervalHaltingDuration="1.00"
     intervalHaltingDurationSum="3.00"
     startedHalts="0.00"
     meanVehicleNumber="6.00"
     maxVehicleNumber="6"
     />
   <interval begin="27.00"
     end="28.00"
     id="WC_0"
     sampledSeconds="6.00"
     nVehEntered="0"
     meanSpeed="3.12"
     meanTimeLoss="0.78"
     meanOccupancy="32.47"
     maxOccupancy="32.47"
     meanMaxJamLengthInVehicles="3.00"
     meanMaxJamLengthInMeters="20.00"
     maxJamLengthInVehicles="3"
     maxJamLengthInMeters="20.00"
     jamLengthInVehiclesSum="3"
     jamLengthInMetersSum="20.00"
     meanHaltingDuration="10.67"
     maxHaltingDuration="16.00"
     haltingDurationSum="32.00"
     meanIntervalHaltingDuration="1.00"
     maxIntervalHaltingDuration="1.00"
     intervalHaltingDurationSum="3.00"
     startedHalts="0.00"
     meanVehicleNumber="6.00"
     maxVehicleNumber="6"
     />
   <interval begin="28.00"
     end="29.00"
     id="WC_0"
     sampledSeconds="7.00"
     nVehEntered="0"
     meanSpeed="2.56"
     meanTimeLoss="0.82"
     meanOccupancy="38.01"
     maxOccupancy="38.01"
     meanMaxJamLengthInVehicles="3.00"
     meanMaxJamLengthInMeters="20.00"
     maxJamLengthInVehicles="3"
     maxJamLengthInMeters="20.00"
     jamLengthInVehiclesSum="3"
     jamLengthInMetersSum="20.00"
     meanHaltingDuration="9.00"
     maxHaltingDuration="17.00"
     haltingDurationSum="36.00"
     meanIntervalHaltingDuration="1.00"
     maxIntervalHaltingDuration="1.00"
     intervalHaltingDurationSum="4.00"
     startedHalts="1.00"
     meanVehicleNumber="7.00"
     maxVehicleNumber="7"
     />
   <interval begin="29.00"
     end="30.00"
     id="WC_0"
     sampledSeconds="6.00"
     nVehEntered="0"
     meanSpeed="2.03"
     meanTimeLoss="0.85"
     meanOccupancy="32.47"
     maxOccupancy="32.47"
     meanMaxJamLengthInVehicles="4.00"
     meanMaxJamLengthInMeters="27.53"
     maxJamLengthInVehicles="4"
     maxJamLengthInMeters="27.53"
     jamLengthInVehiclesSum="4"
     jamLengthInMetersSum="27.53"
     meanHaltingDuration="10.00"
     maxHaltingDuration="18.00"
     haltingDurationSum="40.00"
     meanIntervalHaltingDuration="1.00"
     maxIntervalHaltingDuration="1.00"
     intervalHaltingDurationSum="4.00"
     startedHalts="0.00"
     meanVehicleNumber="6.00"
     maxVehicleNumber="6"
     />
   <interval begin="30.00"
     end="31.00"
     id="WC_0"
     sampledSeconds="6.00"
     nVehEntered="0"
     meanSpeed="2.53"
     meanTimeLoss="0.82"
     meanOccupancy="32.47"
     maxOccupancy="32.47"
     meanMaxJamLengthInVehicles="4.00"
     meanMaxJamLengthInMeters="27.51"
     maxJamLengthInVehicles="4"
     maxJamLengthInMeters="27.51"
     jamLengthInVehiclesSum="4"
     jamLengthInMetersSum="27.51"
     meanHaltingDuration="11.00"
     maxHaltingDuration="19.00"
     haltingDurationSum="44.00"
     meanIntervalHaltingDuration="1.00"
     maxIntervalHaltingDuration="1.00"
     intervalHaltingDurationSum="4.00"
     startedHalts="0.00"
     meanVehicleNumber="6.00"
     maxVehicleNumber="6"
     />
   <interval begin="31.00"
     end="32.00"
     id="WC_0"
     sampledSeconds="7.00"
     nVehEntered="0"
     meanSpeed="2.40"
     meanTimeLoss="0.83"
     meanOccupancy="38.01"
     maxOccupancy="38.01"
     meanMaxJamLengthInVehicles="4.00"
     meanMaxJamLengthInMeters="27.50"
     maxJamLengthInVehicles="4"
     maxJamLengthInMeters="27.50"
     jamLengthInVehiclesSum="4"
     jamLengthInMetersSum="27.50"
     meanHaltingDuration="9.80"
     maxHaltingDuration="20.00"
     haltingDurationSum="49.00"
     meanIntervalHaltingDuration="1.00"
     maxIntervalHaltingDuration="1.00"
     intervalHaltingDurationSum="5.00"
     startedHalts="1.00"
     meanVehicleNumber="7.00"
     maxVehicleNumber="7"
     />
   <interval begin="32.00"
     end="33.00"
     id="WC_0"
     sampledSeconds="7.00"
     nVehEntered="0"
     meanSpeed="2.36"
     meanTimeLoss="0.83"
     meanOccupancy="38.01"
     maxOccupancy="38.01"
     meanMaxJamLengthInVehicles="4.00"
     meanMaxJamLengthInMeters="27.50"
     maxJamLengthInVehicles="4"
     maxJamLengthInMeters="27.50"
     jamLengthInVehiclesSum="4"
     jamLengthInMetersSum="27.50"
     meanHaltingDuration="10.60"
     maxHaltingDuration="21.00"
     haltingDurationSum="53.00"
     meanIntervalHaltingDuration="0.80"
     maxIntervalHaltingDuration="1.00"
     intervalHaltingDurationSum="4.00"
     startedHalts="0.00"
     meanVehicleNumber="7.00"
     maxVehicleNumber="7"
     />
   <interval begin="33.00"
     end="34.00"
     id="WC_0"
     sampledSeconds="7.00"
     nVehEntered="0"
     meanSpeed="2.25"
     meanTimeLoss="0.84"
     meanOccupancy="38.01"
     maxOccupancy="38.01"
     meanMaxJamLengthInVehicles="4.00"
     meanMaxJamLengthInMeters="27.50"
     maxJamLengthInVehicles="4"
     maxJamLengthInMeters="27.50"
     jamLengthInVehiclesSum="4"
     jamLengthInMetersSum="27.50"
     meanHaltingDuration="14.00"
     maxHaltingDuration="22.00"
     haltingDurationSum="56.00"
     meanIntervalHaltingDuration="1.00"
     maxIntervalHaltingDuration="1.00"
     intervalHaltingDurationSum="4.00"
     startedHalts="0.00"
     meanVehicleNumber="7.00"
     maxVehicleNumber="7"
     />
   <interval begin="34.00"
     end="35.00"
     id="WC_0"
     sampledSeconds="8.00"
     nVehEntered="0"
     meanSpeed="2.18"
     meanTimeLoss="0.84"
     meanOccupancy="43.55"
     maxOccupancy="43.55"
     meanMaxJamLengthInVehicles="4.00"
     meanMaxJamLengthInMeters="27.50"
     maxJamLengthInVehicles="4"
     maxJamLengthInMeters="27.50"
     jamLengthInVehiclesSum="4"
     jamLengthInMetersSum="27.50"
     meanHaltingDuration="12.20"
     maxHaltingDuration="23.00"
     haltingDurationSum="61.00"
     meanIntervalHaltingDuration="1.00"
     maxIntervalHaltingDuration="1.00"
     intervalHaltingDurationSum="5.00"
     startedHalts="1.00"
     meanVehicleNumber="8.00"
     maxVehicleNumber="8"
     />
   <interval begin="35.00"
     end="36.00"
     id="WC_0"
     sampledSeconds="7.00"
     nVehEntered="0"
     meanSpeed="1.80"
     meanTimeLoss="0.87"
     meanOccupancy="38.01"
     maxOccupancy="38.01"
     meanMaxJamLengthInVehicles="5.00"
     meanMaxJamLengthInMeters="35.05"
     maxJamLengthInVehicles="5"
     maxJamLengthInMeters="35.05"
     jamLengthInVehiclesSum="5"
     jamLengthInMetersSum="35.05"
     meanHaltingDuration="13.20"
     maxHaltingDuration="24.00"
     haltingDurationSum="66.00"
     meanIntervalHaltingDuration="1.00"
     maxIntervalHaltingDuration="1.00"
     intervalHaltingDurationSum="5.00"
     startedHalts="0.00"
     meanVehicleNumber="7.00"
     maxVehicleNumber="7"
     />
   <interval begin="36.00"
     end="37.00"
     id="WC_0"
     sampledSeconds="7.00"
     nVehEntered="0"
     meanSpeed="2.32"
     meanTimeLoss="0.83"
     meanOccupancy="38.01"
     maxOccupancy="38.01"
     meanMaxJamLengthInVehicles="5.00"
     meanMaxJamLengthInMeters="35.01"
     maxJamLengthInVehicles="5"
     maxJamLengthInMeters="35.01"
     jamLengthInVehiclesSum="5"
     jamLengthInMetersSum="35.01"
     meanHaltingDuration="14.20"
     maxHaltingDuration="25.00"
     haltingDurationSum="71.00"
     meanIntervalHaltingDuration="1.00"
     maxIntervalHaltingDuration="1.00"
     intervalHaltingDurationSum="5.00"
     startedHalts="0.00"
     meanVehicleNumber="7.00"
     maxVehicleNumber="7"
     />
   <interval begin="37.00"
     end="38.00"
     id="WC_0"
     sampledSeconds="8.00"
     nVehEntered="0"
     meanSpeed="2.23"
     meanTimeLoss="0.84"
     meanOccupancy="43.55"
     maxOccupancy="43.55"
     meanMaxJamLengthInVehicles="5.00"
     meanMaxJamLengthInMeters="35.01"
     maxJamLengthInVehicles="5"
     maxJamLengthInMeters="35.01"
     jamLengthInVehiclesSum="5"
     jamLengthInMetersSum="35.01"
     meanHaltingDuration="15.20"
     maxHaltingDuration="26.00"
     haltingDurationSum="76.00"
     meanIntervalHaltingDuration="1.00"
     maxIntervalHaltingDuration="1.00"
     intervalHaltingDurationSum="5.00"
     startedHalts="0.00"
     meanVehicleNumber="8.00"
     maxVehicleNumber="8"
     />
   <interval begin="38.00"
     end="39.00"
     id="WC_0"
     sampledSeconds="8.00"
     nVehEntered="0"
     meanSpeed="2.27"
     meanTimeLoss="0.84"
     meanOccupancy="43.55"
     maxOccupancy="43.55"
     meanMaxJamLengthInVehicles="5.00"
     meanMaxJamLengthInMeters="35.00"
     maxJamLengthInVehicles="5"
     maxJamLengthInMeters="35.00"
     jamLengthInVehiclesSum="5"
     jamLengthInMetersSum="35.00"
     meanHaltingDuration="16.20"
     maxHaltingDuration="27.00"
     haltingDurationSum="81.00"
     meanIntervalHaltingDuration="1.00"
     maxIntervalHaltingDuration="1.00"
     intervalHaltingDurationSum="5.00"
     startedHalts="0.00"
     meanVehicleNumber="8.00"
     maxVehicleNumber="8"
     />
   <interval begin="39.00"
     end="40.00"
     id="WC_0"
     sampledSeconds="8.00"
     nVehEntered="0"
     meanSpeed="1.92"
     meanTimeLoss="0.86"
     meanOccupancy="43.55"
     maxOccupancy="43.55"
     meanMaxJamLengthInVehicles="5.00"
     meanMaxJamLengthInMeters="35.00"
     maxJamLengthInVehicles="5"
     maxJamLengthInMeters="35.00"
     jamLengthInVehiclesSum="5"
     jamLengthInMetersSum="35.00"
     meanHaltingDuration="14.50"
     maxHaltingDuration="28.00"
     haltingDurationSum="87.00"
     meanIntervalHaltingDuration="1.00"
     maxIntervalHaltingDuration="1.00"
     intervalHaltingDurationSum="6.00"
     startedHalts="1.00"
     meanVehicleNumber="8.00"
     maxVehicleNumber="8"
     />
   <interval begin="40.00"
     end="41.00"
     id="WC_0"
     sampledSeconds="9.00"
     nVehEntered="0"
     meanSpeed="1.60"
     meanTimeLoss="0.88"
     meanOccupancy="49.09"
     maxOccupancy="49.09"
     meanMaxJamLengthInVehicles="6.00"
     meanMaxJamLengthInMeters="42.51"
     maxJamLengthInVehicles="6"
     maxJamLengthInMeters="42.51"
     jamLengthInVehiclesSum="6"
     jamLengthInMetersSum="42.51"
     meanHaltingDuration="15.50"
     maxHaltingDuration="29.00"
     haltingDurationSum="93.00"
     meanIntervalHaltingDuration="1.00"
     maxIntervalHaltingDuration="1.00"
     intervalHaltingDurationSum="6.00"
     startedHalts="0.00"
     meanVehicleNumber="9.00"
     maxVehicleNumber="9"
     />
   <interval begin="41.00"
     end="42.00"
     id="WC_0"
     sampledSeconds="8.00"
     nVehEntered="0"
     meanSpeed="1.61"
     meanTimeLoss="0.88"
     meanOccupancy="43.55"
     maxOccupancy="43.55"
     meanMaxJamLengthInVehicles="6.00"
     meanMaxJamLengthInMeters="42.51"
     maxJamLengthInVehicles="6"
     maxJamLengthInMeters="42.51"
     jamLengthInVehiclesSum="6"
     jamLengthInMetersSum="42.51"
     meanHaltingDuration="16.50"