<?xml version="1.0" encoding="UTF-8"?>

<!-- generated on mar 19 giu 2018 12:13:22 CEST by SUMO gui Version 0.29.0
<?xml version="1.0" encoding="UTF-8"?>

<configuration xmlns:xsi="http://www.w3.org/2001/XMLSchema-instance" xsi:noNamespaceSchemaLocation="http://sumo.dlr.de/xsd/sumo-gui.exeConfiguration.xsd">

    <input>
        <net-file value="pedcrossing.net.xml"/>
        <route-files value="pedcrossing.rou.xml"/>
        <additional-files value="pedcrossing.tll.xml,pedcrossing.lad.xml"/>
    </input>

    <report>
        <verbose value="true"/>
        <no-step-log value="true"/>
    </report>

    <traci_server>
        <remote-port value="51513"/>
    </traci_server>

    <random_number>
        <random value="false"/>
        <seed value="0"/>
    </random_number>

    <gui_only>
        <gui-settings-file value="viewsettings.xml"/>
    </gui_only>

</configuration>
-->

<detector xmlns:xsi="http://www.w3.org/2001/XMLSchema-instance" xsi:noNamespaceSchemaLocation="http://sumo.dlr.de/xsd/det_e2_file.xsd">
   <interval begin="0.00" end="1.00" id="EC_0" sampledSeconds="0.00" nVehEntered="0" meanSpeed="-1.00" meanTimeLoss="-1.00" meanOccupancy="0.00" maxOccupancy="0.00" meanMaxJamLengthInVehicles="0.00" meanMaxJamLengthInMeters="0.00" maxJamLengthInVehicles="0" maxJamLengthInMeters="0.00" jamLengthInVehiclesSum="0" jamLengthInMetersSum="0.00" meanHaltingDuration="0.00" maxHaltingDuration="0.00" haltingDurationSum="0.00" meanIntervalHaltingDuration="0.00" maxIntervalHaltingDuration="0.00" intervalHaltingDurationSum="0.00" startedHalts="0.00" meanVehicleNumber="0.00" maxVehicleNumber="0" />
   <interval begin="1.00" end="2.00" id="EC_0" sampledSeconds="1.00" nVehEntered="0" meanSpeed="1.50" meanTimeLoss="0.89" meanOccupancy="5.65" maxOccupancy="5.65" meanMaxJamLengthInVehicles="0.00" meanMaxJamLengthInMeters="0.00" maxJamLengthInVehicles="0" maxJamLengthInMeters="0.00" jamLengthInVehiclesSum="0" jamLengthInMetersSum="0.00" meanHaltingDuration="0.00" maxHaltingDuration="0.00" haltingDurationSum="0.00" meanIntervalHaltingDuration="0.00" maxIntervalHaltingDuration="0.00" intervalHaltingDurationSum="0.00" startedHalts="0.00" meanVehicleNumber="1.00" maxVehicleNumber="1" />
   <interval begin="2.00" end="3.00" id="EC_0" sampledSeconds="1.00" nVehEntered="0" meanSpeed="3.00" meanTimeLoss="0.78" meanOccupancy="5.65" maxOccupancy="5.65" meanMaxJamLengthInVehicles="0.00" meanMaxJamLengthInMeters="0.00" maxJamLengthInVehicles="0" maxJamLengthInMeters="0.00" jamLengthInVehiclesSum="0" jamLengthInMetersSum="0.00" meanHaltingDuration="0.00" maxHaltingDuration="0.00" haltingDurationSum="0.00" meanIntervalHaltingDuration="0.00" maxIntervalHaltingDuration="0.00" intervalHaltingDurationSum="0.00" startedHalts="0.00" meanVehicleNumber="1.00" maxVehicleNumber="1" />
   <interval begin="3.00" end="4.00" id="EC_0" sampledSeconds="1.00" nVehEntered="0" meanSpeed="5.10" meanTimeLoss="0.63" meanOccupancy="5.65" maxOccupancy="5.65" meanMaxJamLengthInVehicles="0.00" meanMaxJamLengthInMeters="0.00" maxJamLengthInVehicles="0" maxJamLengthInMeters="0.00" jamLengthInVehiclesSum="0" jamLengthInMetersSum="0.00" meanHaltingDuration="0.00" maxHaltingDuration="0.00" haltingDurationSum="0.00" meanIntervalHaltingDuration="0.00" maxIntervalHaltingDuration="0.00" intervalHaltingDurationSum="0.00" startedHalts="0.00" meanVehicleNumber="1.00" maxVehicleNumber="1" />
   <interval begin="4.00" end="5.00" id="EC_0" sampledSeconds="2.00" nVehEntered="0" meanSpeed="4.35" meanTimeLoss="0.69" meanOccupancy="11.29" maxOccupancy="11.29" meanMaxJamLengthInVehicles="0.00" meanMaxJamLengthInMeters="0.00" maxJamLengthInVehicles="0" maxJamLengthInMeters="0.00" jamLengthInVehiclesSum="0" jamLengthInMetersSum="0.00" meanHaltingDuration="0.00" maxHaltingDuration="0.00" haltingDurationSum="0.00" meanIntervalHaltingDuration="0.00" maxIntervalHaltingDuration="0.00" intervalHaltingDurationSum="0.00" startedHalts="0.00" meanVehicleNumber="2.00" maxVehicleNumber="2" />
   <interval begin="5.00" end="6.00" id="EC_0" sampledSeconds="2.00" nVehEntered="0" meanSpeed="6.29" meanTimeLoss="0.55" meanOccupancy="11.29" maxOccupancy="11.29" meanMaxJamLengthInVehicles="0.00" meanMaxJamLengthInMeters="0.00" maxJamLengthInVehicles="0" maxJamLengthInMeters="0.00" jamLengthInVehiclesSum="0" jamLengthInMetersSum="0.00" meanHaltingDuration="0.00" maxHaltingDuration="0.00" haltingDurationSum="0.00" meanIntervalHaltingDuration="0.00" maxIntervalHaltingDuration="0.00" intervalHaltingDurationSum="0.00" startedHalts="0.00" meanVehicleNumber="2.00" maxVehicleNumber="2" />
   <interval begin="6.00" end="7.00" id="EC_0" sampledSeconds="2.00" nVehEntered="0" meanSpeed="8.41" meanTimeLoss="0.39" meanOccupancy="11.29" maxOccupancy="11.29" meanMaxJamLengthInVehicles="0.00" meanMaxJamLengthInMeters="0.00" maxJamLengthInVehicles="0" maxJamLengthInMeters="0.00" jamLengthInVehiclesSum="0" jamLengthInMetersSum="0.00" meanHaltingDuration="0.00" maxHaltingDuration="0.00" haltingDurationSum="0.00" meanIntervalHaltingDuration="0.00" maxIntervalHaltingDuration="0.00" intervalHaltingDurationSum="0.00" startedHalts="0.00" meanVehicleNumber="2.00" maxVehicleNumber="2" />
   <interval begin="7.00" end="8.00" id="EC_0" sampledSeconds="3.00" nVehEntered="0" meanSpeed="7.20" meanTimeLoss="0.48" meanOccupancy="16.94" maxOccupancy="16.94" meanMaxJamLengthInVehicles="0.00" meanMaxJamLengthInMeters="0.00" maxJamLengthInVehicles="0" maxJamLengthInMeters="0.00" jamLengthInVehiclesSum="0" jamLengthInMetersSum="0.00" meanHaltingDuration="0.00" maxHaltingDuration="0.00" haltingDurationSum="0.00" meanIntervalHaltingDuration="0.00" maxIntervalHaltingDuration="0.00" intervalHaltingDurationSum="0.00" startedHalts="0.00" meanVehicleNumber="3.00" maxVehicleNumber="3" />
   <interval begin="8.00" end="9.00" id="EC_0" sampledSeconds="3.00" nVehEntered="0" meanSpeed="8.62" meanTimeLoss="0.38" meanOccupancy="16.94" maxOccupancy="16.94" meanMaxJamLengthInVehicles="0.00" meanMaxJamLengthInMeters="0.00" maxJamLengthInVehicles="0" maxJamLengthInMeters="0.00" jamLengthInVehiclesSum="0" jamLengthInMetersSum="0.00" meanHaltingDuration="0.00" maxHaltingDuration="0.00" haltingDurationSum="0.00" meanIntervalHaltingDuration="0.00" maxIntervalHaltingDuration="0.00" intervalHaltingDurationSum="0.00" startedHalts="0.00" meanVehicleNumber="3.00" maxVehicleNumber="3" />
   <interval begin="9.00" end="10.00" id="EC_0" sampledSeconds="3.00" nVehEntered="0" meanSpeed="9.95" meanTimeLoss="0.28" meanOccupancy="16.94" maxOccupancy="16.94" meanMaxJamLengthInVehicles="0.00" meanMaxJamLengthInMeters="0.00" maxJamLengthInVehicles="0" maxJamLengthInMeters="0.00" jamLengthInVehiclesSum="0" jamLengthInMetersSum="0.00" meanHaltingDuration="0.00" maxHaltingDuration="0.00" haltingDurationSum="0.00" meanIntervalHaltingDuration="0.00" maxIntervalHaltingDuration="0.00" intervalHaltingDurationSum="0.00" startedHalts="0.00" meanVehicleNumber="3.00" maxVehicleNumber="3" />
   <interval begin="10.00" end="11.00" id="EC_0" sampledSeconds="4.00" nVehEntered="0" meanSpeed="7.99" meanTimeLoss="0.43" meanOccupancy="22.59" maxOccupancy="22.59" meanMaxJamLengthInVehicles="0.00" meanMaxJamLengthInMeters="0.00" maxJamLengthInVehicles="0" maxJamLengthInMeters="0.00" jamLengthInVehiclesSum="0" jamLengthInMetersSum="0.00" meanHaltingDuration="0.00" maxHaltingDuration="0.00" haltingDurationSum="0.00" meanIntervalHaltingDuration="0.00" maxIntervalHaltingDuration="0.00" intervalHaltingDurationSum="0.00" startedHalts="0.00" meanVehicleNumber="4.00" maxVehicleNumber="4" />
   <interval begin="11.00" end="12.00" id="EC_0" sampledSeconds="4.00" nVehEntered="0" meanSpeed="7.51" meanTimeLoss="0.46" meanOccupancy="21.21" maxOccupancy="21.21" meanMaxJamLengthInVehicles="0.00" meanMaxJamLengthInMeters="0.00" maxJamLengthInVehicles="0" maxJamLengthInMeters="0.00" jamLengthInVehiclesSum="0" jamLengthInMetersSum="0.00" meanHaltingDuration="0.00" maxHaltingDuration="0.00" haltingDurationSum="0.00" meanIntervalHaltingDuration="0.00" maxIntervalHaltingDuration="0.00" intervalHaltingDurationSum="0.00" startedHalts="0.00" meanVehicleNumber="4.00" maxVehicleNumber="4" />
   <interval begin="12.00" end="13.00" id="EC_0" sampledSeconds="4.00" nVehEntered="0" meanSpeed="6.76" meanTimeLoss="0.51" meanOccupancy="20.12" maxOccupancy="20.12" meanMaxJamLengthInVehicles="0.00" meanMaxJamLengthInMeters="0.00" maxJamLengthInVehicles="0" maxJamLengthInMeters="0.00" jamLengthInVehiclesSum="0" jamLengthInMetersSum="0.00" meanHaltingDuration="1.00" maxHaltingDuration="1.00" haltingDurationSum="1.00" meanIntervalHaltingDuration="1.00" maxIntervalHaltingDuration="1.00" intervalHaltingDurationSum="1.00" startedHalts="1.00" meanVehicleNumber="4.00" maxVehicleNumber="4" />
   <interval begin="13.00" end="14.00" id="EC_0" sampledSeconds="4.00" nVehEntered="0" meanSpeed="5.99" meanTimeLoss="0.57" meanOccupancy="19.95" maxOccupancy="19.95" meanMaxJamLengthInVehicles="1.00" meanMaxJamLengthInMeters="2.66" maxJamLengthInVehicles="1" maxJamLengthInMeters="2.66" jamLengthInVehiclesSum="1" jamLengthInMetersSum="2.66" meanHaltingDuration="2.00" maxHaltingDuration="2.00" haltingDurationSum="2.00" meanIntervalHaltingDuration="1.00" maxIntervalHaltingDuration="1.00" intervalHaltingDurationSum="1.00" startedHalts="0.00" meanVehicleNumber="4.00" maxVehicleNumber="4" />
   <interval begin="14.00" end="15.00" id="EC_0" sampledSeconds="4.00" nVehEntered="0" meanSpeed="6.18" meanTimeLoss="0.56" meanOccupancy="19.88" maxOccupancy="19.88" meanMaxJamLengthInVehicles="1.00" meanMaxJamLengthInMeters="2.61" maxJamLengthInVehicles="1" maxJamLengthInMeters="2.61" jamLengthInVehiclesSum="1" jamLengthInMetersSum="2.61" meanHaltingDuration="3.00" maxHaltingDuration="3.00" haltingDurationSum="3.00" meanIntervalHaltingDuration="1.00" maxIntervalHaltingDuration="1.00" intervalHaltingDurationSum="1.00" startedHalts="0.00" meanVehicleNumber="4.00" maxVehicleNumber="4" />
   <interval begin="15.00" end="16.00" id="EC_0" sampledSeconds="4.00" nVehEntered="0" meanSpeed="6.31" meanTimeLoss="0.55" meanOccupancy="19.88" maxOccupancy="19.88" meanMaxJamLengthInVehicles="1.00" meanMaxJamLengthInMeters="2.60" maxJamLengthInVehicles="1" maxJamLengthInMeters="2.60" jamLengthInVehiclesSum="1" jamLengthInMetersSum="2.60" meanHaltingDuration="4.00" maxHaltingDuration="4.00" haltingDurationSum="4.00" meanIntervalHaltingDuration="1.00" maxIntervalHaltingDuration="1.00" intervalHaltingDurationSum="1.00" startedHalts="0.00" meanVehicleNumber="4.00" maxVehicleNumber="4" />
   <interval begin="16.00" end="17.00" id="EC_0" sampledSeconds="5.00" nVehEntered="0" meanSpeed="5.15" meanTimeLoss="0.63" meanOccupancy="25.52" maxOccupancy="25.52" meanMaxJamLengthInVehicles="1.00" meanMaxJamLengthInMeters="2.60" maxJamLengthInVehicles="1" maxJamLengthInMeters="2.60" jamLengthInVehiclesSum="1" jamLengthInMetersSum="2.60" meanHaltingDuration="5.00" maxHaltingDuration="5.00" haltingDurationSum="5.00" meanIntervalHaltingDuration="1.00" maxIntervalHaltingDuration="1.00" intervalHaltingDurationSum="1.00" startedHalts="0.00" meanVehicleNumber="5.00" maxVehicleNumber="5" />
   <interval begin="17.00" end="18.00" id="EC_0" sampledSeconds="5.00" nVehEntered="0" meanSpeed="4.81" meanTimeLoss="0.65" meanOccupancy="25.52" maxOccupancy="25.52" meanMaxJamLengthInVehicles="1.00" meanMaxJamLengthInMeters="2.60" maxJamLengthInVehicles="1" maxJamLengthInMeters="2.60" jamLengthInVehiclesSum="1" jamLengthInMetersSum="2.60" meanHaltingDuration="3.50" maxHaltingDuration="6.00" haltingDurationSum="7.00" meanIntervalHaltingDuration="1.00" maxIntervalHaltingDuration="1.00" intervalHaltingDurationSum="2.00" startedHalts="1.00" meanVehicleNumber="5.00" maxVehicleNumber="5" />
   <interval begin="18.00" end="19.00" id="EC_0" sampledSeconds="5.00" nVehEntered="0" meanSpeed="4.72" meanTimeLoss="0.66" meanOccupancy="25.52" maxOccupancy="25.52" meanMaxJamLengthInVehicles="2.00" meanMaxJamLengthInMeters="12.50" maxJamLengthInVehicles="2" maxJamLengthInMeters="12.50" jamLengthInVehiclesSum="2" jamLengthInMetersSum="12.50" meanHaltingDuration="4.50" maxHaltingDuration="7.00" haltingDurationSum="9.00" meanIntervalHaltingDuration="1.00" maxIntervalHaltingDuration="1.00" intervalHaltingDurationSum="2.00" startedHalts="0.00" meanVehicleNumber="5.00" maxVehicleNumber="5" />
   <interval begin="19.00" end="20.00" id="EC_0" sampledSeconds="5.00" nVehEntered="0" meanSpeed="4.47" meanTimeLoss="0.68" meanOccupancy="25.52" maxOccupancy="25.52" meanMaxJamLengthInVehicles="2.00" meanMaxJamLengthInMeters="12.50" maxJamLengthInVehicles="2" maxJamLengthInMeters="12.50" jamLengthInVehiclesSum="2" jamLengthInMetersSum="12.50" meanHaltingDuration="5.50" maxHaltingDuration="8.00" haltingDurationSum="11.00" meanIntervalHaltingDuration="1.00" maxIntervalHaltingDuration="1.00" intervalHaltingDurationSum="2.00" startedHalts="0.00" meanVehicleNumber="5.00" maxVehicleNumber="5" />
   <interval begin="20.00" end="21.00" id="EC_0" sampledSeconds="5.00" nVehEntered="0" meanSpeed="4.45" meanTimeLoss="0.68" meanOccupancy="25.52" maxOccupancy="25.52" meanMaxJamLengthInVehicles="2.00" meanMaxJamLengthInMeters="12.50" maxJamLengthInVehicles="2" maxJamLengthInMeters="12.50" jamLengthInVehiclesSum="2" jamLengthInMetersSum="12.50" meanHaltingDuration="6.50" maxHaltingDuration="9.00" haltingDurationSum="13.00" meanIntervalHaltingDuration="1.00" maxIntervalHaltingDuration="1.00" intervalHaltingDurationSum="2.00" startedHalts="0.00" meanVehicleNumber="5.00" maxVehicleNumber="5" />
   <interval begin="21.00" end="22.00" id="EC_0" sampledSeconds="5.00" nVehEntered="0" meanSpeed="4.60" meanTimeLoss="0.67" meanOccupancy="25.52" maxOccupancy="25.52" meanMaxJamLengthInVehicles="2.00" meanMaxJamLengthInMeters="12.50" maxJamLengthInVehicles="2" maxJamLengthInMeters="12.50" jamLengthInVehiclesSum="2" jamLengthInMetersSum="12.50" meanHaltingDuration="7.50" maxHaltingDuration="10.00" haltingDurationSum="15.00" meanIntervalHaltingDuration="1.00" maxIntervalHaltingDuration="1.00" intervalHaltingDurationSum="2.00" startedHalts="0.00" meanVehicleNumber="5.00" maxVehicleNumber="5" />
   <interval begin="22.00" end="23.00" id="EC_0" sampledSeconds="6.00" nVehEntered="0" meanSpeed="3.64" meanTimeLoss="0.74" meanOccupancy="31.17" maxOccupancy="31.17" meanMaxJamLengthInVehicles="2.00" meanMaxJamLengthInMeters="12.50" maxJamLengthInVehicles="2" maxJamLengthInMeters="12.50" jamLengthInVehiclesSum="2" jamLengthInMetersSum="12.50" meanHaltingDuration="4.75" maxHaltingDuration="11.00" haltingDurationSum="19.00" meanIntervalHaltingDuration="1.00" maxIntervalHaltingDuration="1.00" intervalHaltingDurationSum="4.00" startedHalts="2.00" meanVehicleNumber="6.00" maxVehicleNumber="6" />
   <interval begin="23.00" end="24.00" id="EC_0" sampledSeconds="6.00" nVehEntered="0" meanSpeed="3.40" meanTimeLoss="0.75" meanOccupancy="31.17" maxOccupancy="31.17" meanMaxJamLengthInVehicles="3.00" meanMaxJamLengthInMeters="20.03" maxJamLengthInVehicles="3" maxJamLengthInMeters="20.03" jamLengthInVehiclesSum="3" jamLengthInMetersSum="20.03" meanHaltingDuration="5.50" maxHaltingDuration="12.00" haltingDurationSum="22.00" meanIntervalHaltingDuration="0.75" maxIntervalHaltingDuration="1.00" intervalHaltingDurationSum="3.00" startedHalts="0.00" meanVehicleNumber="6.00" maxVehicleNumber="6" />
   <interval begin="24.00" end="25.00" id="EC_0" sampledSeconds="5.00" nVehEntered="0" meanSpeed="3.49" meanTimeLoss="0.75" meanOccupancy="25.52" maxOccupancy="25.52" meanMaxJamLengthInVehicles="3.00" meanMaxJamLengthInMeters="20.01" maxJamLengthInVehicles="3" maxJamLengthInMeters="20.01" jamLengthInVehiclesSum="3" jamLengthInMetersSum="20.01" meanHaltingDuration="8.00" maxHaltingDuration="13.00" haltingDurationSum="24.00" meanIntervalHaltingDuration="1.00" maxIntervalHaltingDuration="1.00" intervalHaltingDurationSum="3.00" startedHalts="0.00" meanVehicleNumber="5.00" maxVehicleNumber="5" />
   <interval begin="25.00" end="26.00" id="EC_0" sampledSeconds="6.00" nVehEntered="0" meanSpeed="3.28" meanTimeLoss="0.76" meanOccupancy="31.17" maxOccupancy="31.17" meanMaxJamLengthInVehicles="3.00" meanMaxJamLengthInMeters="20.01" maxJamLengthInVehicles="3" maxJamLengthInMeters="20.01" jamLengthInVehiclesSum="3" jamLengthInMetersSum="20.01" meanHaltingDuration="9.00" maxHaltingDuration="14.00" haltingDurationSum="27.00" meanIntervalHaltingDuration="1.00" maxIntervalHaltingDuration="1.00" intervalHaltingDurationSum="3.00" startedHalts="0.00" meanVehicleNumber="6.00" maxVehicleNumber="6" />
   <interval begin="26.00" end="27.00" id="EC_0" sampledSeconds="6.00" nVehEntered="0" meanSpeed="3.36" meanTimeLoss="0.76" meanOccupancy="31.17" maxOccupancy="31.17" meanMaxJamLengthInVehicles="3.00" meanMaxJamLengthInMeters="20.00" maxJamLengthInVehicles="3" maxJamLengthInMeters="20.00" jamLengthInVehiclesSum="3" jamLengthInMetersSum="20.00" meanHaltingDuration="10.00" maxHaltingDuration="15.00" haltingDurationSum="30.00" meanIntervalHaltingDuration="1.00" maxIntervalHaltingDuration="1.00" intervalHaltingDurationSum="3.00" startedHalts="0.00" meanVehicleNumber="6.00" maxVehicleNumber="6" />
   <interval begin="27.00" end="28.00" id="EC_0" sampledSeconds="6.00" nVehEntered="0" meanSpeed="3.26" meanTimeLoss="0.77" meanOccupancy="31.17" maxOccupancy="31.17" meanMaxJamLengthInVehicles="3.00" meanMaxJamLengthInMeters="20.00" maxJamLengthInVehicles="3" maxJamLengthInMeters="20.00" jamLengthInVehiclesSum="3" jamLengthInMetersSum="20.00" meanHaltingDuration="11.00" maxHaltingDuration="16.00" haltingDurationSum="33.00" meanIntervalHaltingDuration="1.00" maxIntervalHaltingDuration="1.00" intervalHaltingDurationSum="3.00" startedHalts="0.00" meanVehicleNumber="6.00" maxVehicleNumber="6" />
   <interval begin="28.00" end="29.00" id="EC_0" sampledSeconds="7.00" nVehEntered="0" meanSpeed="2.96" meanTimeLoss="0.79" meanOccupancy="36.82" maxOccupancy="36.82" meanMaxJamLengthInVehicles="3.00" meanMaxJamLengthInMeters="20.00" maxJamLengthInVehicles="3" maxJamLengthInMeters="20.00" jamLengthInVehiclesSum="3" jamLengthInMetersSum="20.00" meanHaltingDuration="9.25" maxHaltingDuration="17.00" haltingDurationSum="37.00" meanIntervalHaltingDuration="1.00" maxIntervalHaltingDuration="1.00" intervalHaltingDurationSum="4.00" startedHalts="1.00" meanVehicleNumber="7.00" maxVehicleNumber="7" />
   <interval begin="29.00" end="30.00" id="EC_0" sampledSeconds="7.00" nVehEntered="0" meanSpeed="2.80" meanTimeLoss="0.80" meanOccupancy="36.82" maxOccupancy="36.82" meanMaxJamLengthInVehicles="4.00" meanMaxJamLengthInMeters="27.53" maxJamLengthInVehicles="4" maxJamLengthInMeters="27.53" jamLengthInVehiclesSum="4" jamLengthInMetersSum="27.53" meanHaltingDuration="10.25" maxHaltingDuration="18.00" haltingDurationSum="41.00" meanIntervalHaltingDuration="1.00" maxIntervalHaltingDuration="1.00" intervalHaltingDurationSum="4.00" startedHalts="0.00" meanVehicleNumber="7.00" maxVehicleNumber="7" />
   <interval begin="30.00" end="31.00" id="EC_0" sampledSeconds="6.00" nVehEntered="0" meanSpeed="2.83" meanTimeLoss="0.80" meanOccupancy="31.17" maxOccupancy="31.17" meanMaxJamLengthInVehicles="4.00" meanMaxJamLengthInMeters="27.52" maxJamLengthInVehicles="4" maxJamLengthInMeters="27.52" jamLengthInVehiclesSum="4" jamLengthInMetersSum="27.52" meanHaltingDuration="11.25" maxHaltingDuration="19.00" haltingDurationSum="45.00" meanIntervalHaltingDuration="1.00" maxIntervalHaltingDuration="1.00" intervalHaltingDurationSum="4.00" startedHalts="0.00" meanVehicleNumber="6.00" maxVehicleNumber="6" />
   <interval begin="31.00" end="32.00" id="EC_0" sampledSeconds="7.00" nVehEntered="0" meanSpeed="2.97" meanTimeLoss="0.79" meanOccupancy="36.82" maxOccupancy="36.82" meanMaxJamLengthInVehicles="4.00" meanMaxJamLengthInMeters="27.51" maxJamLengthInVehicles="4" maxJamLengthInMeters="27.51" jamLengthInVehiclesSum="4" jamLengthInMetersSum="27.51" meanHaltingDuration="12.25" maxHaltingDuration="20.00" haltingDurationSum="49.00" meanIntervalHaltingDuration="1.00" maxIntervalHaltingDuration="1.00" intervalHaltingDurationSum="4.00" startedHalts="0.00" meanVehicleNumber="7.00" maxVehicleNumber="7" />
   <interval begin="32.00" end="33.00" id="EC_0" sampledSeconds="7.00" nVehEntered="0" meanSpeed="2.86" meanTimeLoss="0.79" meanOccupancy="36.82" maxOccupancy="36.82" meanMaxJamLengthInVehicles="4.00" meanMaxJamLengthInMeters="27.50" maxJamLengthInVehicles="4" maxJamLengthInMeters="27.50" jamLengthInVehiclesSum="4" jamLengthInMetersSum="27.50" meanHaltingDuration="13.25" maxHaltingDuration="21.00" haltingDurationSum="53.00" meanIntervalHaltingDuration="1.00" maxIntervalHaltingDuration="1.00" intervalHaltingDurationSum="4.00" startedHalts="0.00" meanVehicleNumber="7.00" maxVehicleNumber="7" />
   <interval begin="33.00" end="34.00" id="EC_0" sampledSeconds="7.00" nVehEntered="0" meanSpeed="2.32" meanTimeLoss="0.83" meanOccupancy="36.82" maxOccupancy="36.82" meanMaxJamLengthInVehicles="4.00" meanMaxJamLengthInMeters="27.50" maxJamLengthInVehicles="4" maxJamLengthInMeters="27.50" jamLengthInVehiclesSum="4" jamLengthInMetersSum="27.50" meanHaltingDuration="14.25" maxHaltingDuration="22.00" haltingDurationSum="57.00" meanIntervalHaltingDuration="1.00" maxIntervalHaltingDuration="1.00" intervalHaltingDurationSum="4.00" startedHalts="0.00" meanVehicleNumber="7.00" maxVehicleNumber="7" />
   <interval begin="34.00" end="35.00" id="EC_0" sampledSeconds="7.00" nVehEntered="0" meanSpeed="1.39" meanTimeLoss="0.90" meanOccupancy="36.82" maxOccupancy="36.82" meanMaxJamLengthInVehicles="4.00" meanMaxJamLengthInMeters="27.50" maxJamLengthInVehicles="4" maxJamLengthInMeters="27.50" jamLengthInVehiclesSum="4" jamLengthInMetersSum="27.50" meanHaltingDuration="12.40" maxHaltingDuration="23.00" haltingDurationSum="62.00" meanIntervalHaltingDuration="1.00" maxIntervalHaltingDuration="1.00" intervalHaltingDurationSum="5.00" startedHalts="1.00" meanVehicleNumber="7.00" maxVehicleNumber="7" />
   <interval begin="35.00" end="36.00" id="EC_0" sampledSeconds="7.00" nVehEntered="0" meanSpeed="1.75" meanTimeLoss="0.87" meanOccupancy="36.82" maxOccupancy="36.82" meanMaxJamLengthInVehicles="5.00" meanMaxJamLengthInMeters="35.01" maxJamLengthInVehicles="5" maxJamLengthInMeters="35.01" jamLengthInVehiclesSum="5" jamLengthInMetersSum="35.01" meanHaltingDuration="13.40" maxHaltingDuration="24.00" haltingDurationSum="67.00" meanIntervalHaltingDuration="1.00" maxIntervalHaltingDuration="1.00" intervalHaltingDurationSum="5.00" startedHalts="0.00" meanVehicleNumber="7.00" maxVehicleNumber="7" />
   <interval begin="36.00" end="37.00" id="EC_0" sampledSeconds="7.00" nVehEntered="0" meanSpeed="2.42" meanTimeLoss="0.83" meanOccupancy="36.82" maxOccupancy="36.82" meanMaxJamLengthInVehicles="5.00" meanMaxJamLengthInMeters="35.00" maxJamLengthInVehicles="5" maxJamLengthInMeters="35.00" jamLengthInVehiclesSum="5" jamLengthInMetersSum="35.00" meanHaltingDuration="14.40" maxHaltingDuration="25.00" haltingDurationSum="72.00" meanIntervalHaltingDuration="1.00" maxIntervalHaltingDuration="1.00" intervalHaltingDurationSum="5.00" startedHalts="0.00" meanVehicleNumber="7.00" maxVehicleNumber="7" />
   <interval begin="37.00" end="38.00" id="EC_0" sampledSeconds="8.00" nVehEntered="0" meanSpeed="2.09" meanTimeLoss="0.85" meanOccupancy="42.46" maxOccupancy="42.46" meanMaxJamLengthInVehicles="5.00" meanMaxJamLengthInMeters="35.00" maxJamLengthInVehicles="5" maxJamLengthInMeters="35.00" jamLengthInVehiclesSum="5" jamLengthInMetersSum="35.00" meanHaltingDuration="15.40" maxHaltingDuration="26.00" haltingDurationSum="77.00" meanIntervalHaltingDuration="1.00" maxIntervalHaltingDuration="1.00" intervalHaltingDurationSum="5.00" startedHalts="0.00" meanVehicleNumber="8.00" maxVehicleNumber="8" />
   <interval begin="38.00" end="39.00" id="EC_0" sampledSeconds="8.00" nVehEntered="0" meanSpeed="2.01" meanTimeLoss="0.86" meanOccupancy="42.46" maxOccupancy="42.46" meanMaxJamLengthInVehicles="5.00" meanMaxJamLengthInMeters="35.00" maxJamLengthInVehicles="5" maxJamLengthInMeters="35.00" jamLengthInVehiclesSum="5" jamLengthInMetersSum="35.00" meanHaltingDuration="16.40" maxHaltingDuration="27.00" haltingDurationSum="82.00" meanIntervalHaltingDuration="1.00" maxIntervalHaltingDuration="1.00" intervalHaltingDurationSum="5.00" startedHalts="0.00" meanVehicleNumber="8.00" maxVehicleNumber="8" />
   <interval begin="39.00" end="40.00" id="EC_0" sampledSeconds="8.00" nVehEntered="0" meanSpeed="1.61" meanTimeLoss="0.88" meanOccupancy="42.46" maxOccupancy="42.46" meanMaxJamLengthInVehicles="5.00" meanMaxJamLengthInMeters="35.00" maxJamLengthInVehicles="5" maxJamLengthInMeters="35.00" jamLengthInVehiclesSum="5" jamLengthInMetersSum="35.00" meanHaltingDuration="14.67" maxHaltingDuration="28.00" haltingDurationSum="88.00" meanIntervalHaltingDuration="1.00" maxIntervalHaltingDuration="1.00" intervalHaltingDurationSum="6.00" startedHalts="1.00" meanVehicleNumber="8.00" maxVehicleNumber="8" />
   <interval begin="40.00" end="41.00" id="EC_0" sampledSeconds="8.00" nVehEntered="0" meanSpeed="1.13" meanTimeLoss="0.92" meanOccupancy="42.46" maxOccupancy="42.46" meanMaxJamLengthInVehicles="6.00" meanMaxJamLengthInMeters="42.51" maxJamLengthInVehicles="6" maxJamLengthInMeters="42.51" jamLengthInVehiclesSum="6" jamLengthInMetersSum="42.51" meanHaltingDuration="15.67" maxHaltingDuration="29.00" haltingDurationSum="94.00" meanIntervalHaltingDuration="1.00" maxIntervalHaltingDuration="1.00" intervalHaltingDurationSum="6.00" startedHalts="0.00" meanVehicleNumber="8.00" maxVehicleNumber="8" />
   <interval begin="41.00" end="42.00" id="EC_0" sampledSeconds="8.00" nVehEntered="0" meanSpeed="1.56" meanTimeLoss="0.89" meanOccupancy="42.46" maxOccupancy="42.46" meanMaxJamLengthInVehicles="6.00" meanMaxJamLengthInMeters="42.51" maxJamLengthInVehicles="6" maxJamLengthInMeters="42.51" jamLengthInVehiclesSum="6" jamLengthInMetersSum="42.51" meanHaltingDuration="16.67" maxHaltingDuration="30.00" haltingDurationSum="100.00" meanIntervalHaltingDuration="1.00" maxIntervalHaltingDuration="1.00" intervalHaltingDurationSum="6.00" startedHalts="0.00" meanVehicleNumber="8.00" maxVehicleNumber="8" />
   <interval begin="42.00" end="43.00" id="EC_0" sampledSeconds="8.00" nVehEntered="0" meanSpeed="1.95" meanTimeLoss="0.86" meanOccupancy="42.46" maxOccupancy="42.46" meanMaxJamLengthInVehicles="6.00" meanMaxJamLengthInMeters="42.51" maxJamLengthInVehicles="6" maxJamLengthInMeters="42.51" jamLengthInVehiclesSum="6" jamLengthInMetersSum="42.51" meanHaltingDuration="17.67" maxHaltingDuration="31.00" haltingDurationSum="106.00" meanIntervalHaltingDuration="1.00" maxIntervalHaltingDuration="1.00" intervalHaltingDurationSum="6.00" startedHalts="0.00" meanVehicleNumber="8.00" maxVehicleNumber="8" />
   <interval begin="43.00" end="44.00" id="EC_0" sampledSeconds="9.00" nVehEntered="0" meanSpeed="1.62" meanTimeLoss="0.88" meanOccupancy="48.11" maxOccupancy="48.11" meanMaxJamLengthInVehicles="6.00" meanMaxJamLengthInMeters="42.51" maxJamLengthInVehicles="6" maxJamLengthInMeters="42.51" jamLengthInVehiclesSum="6" jamLengthInMetersSum="42.51" meanHaltingDuration="18.67" maxHaltingDuration="32.00" haltingDurationSum="112.00" meanIntervalHaltingDuration="1.00" maxIntervalHaltingDuration="1.00" intervalHaltingDurationSum="6.00" startedHalts="0.00" meanVehicleNumber="9.00" maxVehicleNumber="9" />
   <interval begin="44.00" end="45.00" id="EC_0" sampledSeconds="8.00" nVehEntered="0" meanSpeed="0.55" meanTimeLoss="0.96" meanOccupancy="42.46" maxOccupancy="42.46" meanMaxJamLengthInVehicles="6.00" meanMaxJamLengthInMeters="42.51" maxJamLengthInVehicles="6" maxJamLengthInMeters="42.51" jamLengthInVehiclesSum="6" jamLengthInMetersSum="42.51" meanHaltingDuration="17.00" maxHaltingDuration="33.00" haltingDurationSum="119.00" meanIntervalHaltingDuration="1.00" maxIntervalHaltingDuration="1.00" intervalHaltingDurationSum="7.00" startedHalts="1.00" meanVehicleNumber="8.00" maxVehicleNumber="8" />
   <interval begin="45.00" end="46.00" id="EC_0" sampledSeconds="8.00" nVehEntered="0" meanSpeed="0.90" meanTimeLoss="0.94" meanOccupancy="40.05" maxOccupancy="40.05" meanMaxJamLengthInVehicles="6.00" meanMaxJamLengthInMeters="42.52" maxJamLengthInVehicles="6" maxJamLengthInMeters="42.52" jamLengthInVehiclesSum="6" jamLengthInMetersSum="42.52" meanHaltingDuration="17.86" maxHaltingDuration="33.00" haltingDurationSum="125.00" meanIntervalHaltingDuration="0.86" maxIntervalHaltingDuration="1.00" intervalHaltingDurationSum="6.00" startedHalts="0.00" meanVehicleNumber="8.00" maxVehicleNumber="8" />
   <interval begin="46.00" end="47.00" id="EC_0" sampledSeconds="8.12" nVehEntered="0" meanSpeed="1.31" meanTimeLoss="0.82" meanOccupancy="45.17" maxOccupancy="45.17" meanMaxJamLengthInVehicles="5.00" meanMaxJamLengthInMeters="35.01" maxJamLengthInVehicles="5" maxJamLengthInMeters="35.01" jamLengthInVehiclesSum="5" jamLengthInMetersSum="35.01" meanHaltingDuration="14.00" maxHaltingDuration="29.00" haltingDurationSum="98.00" meanIntervalHaltingDuration="0.86" maxIntervalHaltingDuration="1.00" intervalHaltingDurationSum="6.00" startedHalts="1.00" meanVehicleNumber="9.00" maxVehicleNumber="9" />
   <interval begin="47.00" end="48.00" id="EC_0" sampledSeconds="8.00" nVehEntered="0" meanSpeed="2.25" meanTimeLoss="0.84" meanOccupancy="44.75" maxOccupancy="44.75" meanMaxJamLengthInVehicles="5.00" meanMaxJamLengthInMeters="36.26" maxJamLengthInVehicles="5" maxJamLengthInMeters="36.26" jamLengthInVehiclesSum="5" jamLengthInMetersSum="36.26" meanHaltingDuration="12.33" maxHaltingDuration="26.00" haltingDurationSum="74.00" meanIntervalHaltingDuration="0.83" maxIntervalHaltingDuration="1.00" intervalHaltingDurationSum="5.00" startedHalts="0.00" meanVehicleNumber="8.00" maxVehicleNumber="8" />